 Entering Gaussian System, Link 0=g16
 Input=TS2s-fRSR.com
 Output=TS2s-fRSR.log
 Initial command:
 /gpfs1/apps/software/Gaussian16/AVX2/g16/l1.exe "/tmp/ag266/333490/Gau-123330.inp" -scrdir="/tmp/ag266/333490/"
 Entering Link 1 = /gpfs1/apps/software/Gaussian16/AVX2/g16/l1.exe PID=    123331.
  
 Copyright (c) 1988-2019, Gaussian, Inc.  All Rights Reserved.
  
 This is part of the Gaussian(R) 16 program.  It is based on
 the Gaussian(R) 09 system (copyright 2009, Gaussian, Inc.),
 the Gaussian(R) 03 system (copyright 2003, Gaussian, Inc.),
 the Gaussian(R) 98 system (copyright 1998, Gaussian, Inc.),
 the Gaussian(R) 94 system (copyright 1995, Gaussian, Inc.),
 the Gaussian 92(TM) system (copyright 1992, Gaussian, Inc.),
 the Gaussian 90(TM) system (copyright 1990, Gaussian, Inc.),
 the Gaussian 88(TM) system (copyright 1988, Gaussian, Inc.),
 the Gaussian 86(TM) system (copyright 1986, Carnegie Mellon
 University), and the Gaussian 82(TM) system (copyright 1983,
 Carnegie Mellon University). Gaussian is a federally registered
 trademark of Gaussian, Inc.
  
 This software contains proprietary and confidential information,
 including trade secrets, belonging to Gaussian, Inc.
  
 This software is provided under written license and may be
 used, copied, transmitted, or stored only in accord with that
 written license.
  
 The following legend is applicable only to US Government
 contracts under FAR:
  
                    RESTRICTED RIGHTS LEGEND
  
 Use, reproduction and disclosure by the US Government is
 subject to restrictions as set forth in subparagraphs (a)
 and (c) of the Commercial Computer Software - Restricted
 Rights clause in FAR 52.227-19.
  
 Gaussian, Inc.
 340 Quinnipiac St., Bldg. 40, Wallingford CT 06492
  
  
 ---------------------------------------------------------------
 Warning -- This program may not be used in any manner that
 competes with the business of Gaussian, Inc. or will provide
 assistance to any competitor of Gaussian, Inc.  The licensee
 of this program is prohibited from giving any competitor of
 Gaussian, Inc. access to this program.  By using this program,
 the user acknowledges that Gaussian, Inc. is engaged in the
 business of creating and licensing software in the field of
 computational chemistry and represents and warrants to the
 licensee that it is not a competitor of Gaussian, Inc. and that
 it will not use this program in any manner prohibited above.
 ---------------------------------------------------------------
  

 Cite this work as:
 Gaussian 16, Revision C.01,
 M. J. Frisch, G. W. Trucks, H. B. Schlegel, G. E. Scuseria, 
 M. A. Robb, J. R. Cheeseman, G. Scalmani, V. Barone, 
 G. A. Petersson, H. Nakatsuji, X. Li, M. Caricato, A. V. Marenich, 
 J. Bloino, B. G. Janesko, R. Gomperts, B. Mennucci, H. P. Hratchian, 
 J. V. Ortiz, A. F. Izmaylov, J. L. Sonnenberg, D. Williams-Young, 
 F. Ding, F. Lipparini, F. Egidi, J. Goings, B. Peng, A. Petrone, 
 T. Henderson, D. Ranasinghe, V. G. Zakrzewski, J. Gao, N. Rega, 
 G. Zheng, W. Liang, M. Hada, M. Ehara, K. Toyota, R. Fukuda, 
 J. Hasegawa, M. Ishida, T. Nakajima, Y. Honda, O. Kitao, H. Nakai, 
 T. Vreven, K. Throssell, J. A. Montgomery, Jr., J. E. Peralta, 
 F. Ogliaro, M. J. Bearpark, J. J. Heyd, E. N. Brothers, K. N. Kudin, 
 V. N. Staroverov, T. A. Keith, R. Kobayashi, J. Normand, 
 K. Raghavachari, A. P. Rendell, J. C. Burant, S. S. Iyengar, 
 J. Tomasi, M. Cossi, J. M. Millam, M. Klene, C. Adamo, R. Cammi, 
 J. W. Ochterski, R. L. Martin, K. Morokuma, O. Farkas, 
 J. B. Foresman, and D. J. Fox, Gaussian, Inc., Wallingford CT, 2019.
 
 ******************************************
 Gaussian 16:  ES64L-G16RevC.01  3-Jul-2019
                 2-Sep-2021 
 ******************************************
 %NProc=32
 Will use up to   32 processors via shared memory.
 %mem=4GB
 %chk=TS2s-fRSR.chk
 ----------------------------------------------------------------------
 #P RBP86/gen/auto opt=(TS,CalcFC,NoEigentest) freq scrf=(iefpcm,solven
 t=Ethanol)
 ----------------------------------------------------------------------
 1/5=1,10=4,11=1,18=20,26=3,38=1/1,3;
 2/9=110,12=2,17=6,18=5,40=1/2;
 3/5=7,11=2,25=1,30=1,70=2201,71=2,72=4,74=404,82=28,116=1,140=1/1,2,3;
 4//1;
 5/5=2,38=5,53=4/2;
 8/6=4,10=90,11=11/1;
 11/6=1,8=1,9=11,15=111,16=1/1,2,10;
 10/6=1,13=1/2;
 6/7=2,8=2,9=2,10=2,28=1/1;
 7/10=1,25=1/1,2,3,16;
 1/5=1,10=4,11=1,18=20,26=3/3(2);
 2/9=110/2;
 99//99;
 2/9=110/2;
 3/5=7,6=1,11=2,25=1,30=1,70=2205,71=1,72=4,74=404,82=7,116=1/1,2,3;
 4/5=5,16=3,69=1/1;
 5/5=2,38=5,53=4/2;
 7//1,2,3,16;
 1/5=1,11=1,18=20,26=3/3(-5);
 2/9=110/2;
 6/7=2,8=2,9=2,10=2,19=2,28=1/1;
 99/9=1/99;
 Leave Link    1 at Thu Sep  2 21:29:20 2021, MaxMem=   536870912 cpu:              32.9 elap:               1.1
 (Enter /gpfs1/apps/software/Gaussian16/AVX2/g16/l101.exe)
 ------------------------
 TS2s-fRSR ; BP86/def2SVP
 ------------------------
 Symbolic Z-matrix:
 Charge =  0 Multiplicity = 1
 Fe                    3.34554   0.87911  -1.31838 
 Mn                   -0.59557   0.48476   1.51886 
 P                     0.66209  -0.9045    0.23951 
 O                    -0.72314  -1.5062    3.69761 
 O                     1.66101   1.81649   2.86083 
 N                    -0.69643   1.84179  -0.08809 
 N                    -2.3889   -0.08365   0.6511 
 C                     1.52305  -0.04776  -1.13401 
 C                     1.34737   1.36326  -1.46719 
 C                     2.02461   1.58856  -2.7228 
 H                     2.10102   2.55006  -3.24607 
 C                     2.62213   0.35539  -3.16025 
 H                     3.22517   0.21673  -4.06774 
 C                     2.3254   -0.65437  -2.18202 
 H                     2.64211  -1.70423  -2.2262 
 C                     4.18697   1.31193   0.51372 
 H                     3.65125   1.34717   1.47082 
 C                     4.35899   2.41599  -0.39248 
 H                     3.98309   3.43731  -0.24444 
 C                     5.08905   1.94136  -1.54042 
 H                     5.36297   2.53575  -2.4224 
 C                     5.37135   0.54237  -1.34087 
 H                     5.89908  -0.11543  -2.04449 
 C                     4.8113    0.15183  -0.07309 
 H                     4.83823  -0.85458   0.36441 
 C                    -0.3404   -2.21593  -0.62405 
 C                    -0.91323  -3.23853   0.16981 
 H                    -0.71653  -3.26845   1.25388 
 C                    -1.7249   -4.22591  -0.41199 
 H                    -2.15556  -5.01945   0.21937 
 C                    -1.98859  -4.20123  -1.79498 
 H                    -2.6255   -4.97555  -2.25131 
 C                    -1.43467  -3.18261  -2.58887 
 H                    -1.63426  -3.15456  -3.67205 
 C                    -0.61519  -2.19523  -2.0083 
 H                    -0.17778  -1.41275  -2.64709 
 C                     1.9885   -1.95522   1.02446 
 C                     2.55672  -1.59549   2.26557 
 H                     2.19902  -0.7049    2.80026 
 C                     3.58834  -2.36698   2.83176 
 H                     4.01764  -2.07111   3.80216 
 C                     4.0657   -3.51006   2.16713 
 H                     4.87184  -4.11461   2.61227 
 C                     3.50044  -3.88239   0.93354 
 H                     3.86072  -4.78103   0.40779 
 C                     2.467    -3.11474   0.36935 
 H                     2.02166  -3.43263  -0.58617 
 C                     0.56442   2.38975  -0.65065 
 H                     1.17997   2.65646   0.23282 
 C                    -1.62231   1.36915  -1.1257 
 H                    -2.06164   2.20335  -1.72039 
 H                    -1.09448   0.71905  -1.86872 
 C                    -2.72329   0.54574  -0.51229 
 C                    -3.32822  -0.89297   1.20795 
 C                    -4.59141  -1.10506   0.66818 
 C                    -4.96851  -0.44376  -0.54328 
 C                    -3.9741    0.40379  -1.11821 
 C                     0.33014   3.69777  -1.43416 
 H                     1.29421   4.18966  -1.67601 
 H                    -0.211     3.53076  -2.38839 
 H                    -0.26219   4.39411  -0.80716 
 C                    -0.68015  -0.70401   2.83122 
 C                     0.79273   1.25878   2.28194 
 H                    -1.68058   1.31095   2.5559 
 H                    -1.50871   2.0208    2.11328 
 H                    -1.25926   2.81051   0.58831 
 O                    -1.69168   3.60811   1.39367 
 C                    -3.06742   3.85265   1.24942 
 H                    -3.35374   4.00385   0.17338 
 H                    -3.68783   2.97924   1.59739 
 H                    -4.16523   0.95725  -2.04685 
 H                    -5.27889  -1.77703   1.1973 
 H                    -3.04657  -1.39337   2.14642 
 C                    -3.49353   5.09116   2.04452 
 H                    -2.93303   5.9864    1.69972 
 H                    -4.5802    5.29577   1.93185 
 H                    -3.27769   4.95552   3.126 
 H                    -5.93229  -0.5758   -0.98891 
 
 Add virtual bond connecting atoms O67        and H66        Dist= 2.29D+00.
 Add virtual bond connecting atoms H66        and N6         Dist= 2.47D+00.
 ITRead=  0  0  0  0  0  0  0  0  0  0  0  0  0  0  0  0  0  0  0  0
 ITRead=  0  0  0  0  0  0  0  0  0  0  0  0  0  0  0  0  0  0  0  0
 ITRead=  0  0  0  0  0  0  0  0  0  0  0  0  0  0  0  0  0  0  0  0
 ITRead=  0  0  0  0  0  0  0  0  0  0  0  0  0  0  0  0  0  0
 MicOpt= -1 -1 -1 -1 -1 -1 -1 -1 -1 -1 -1 -1 -1 -1 -1 -1 -1 -1 -1 -1
 MicOpt= -1 -1 -1 -1 -1 -1 -1 -1 -1 -1 -1 -1 -1 -1 -1 -1 -1 -1 -1 -1
 MicOpt= -1 -1 -1 -1 -1 -1 -1 -1 -1 -1 -1 -1 -1 -1 -1 -1 -1 -1 -1 -1
 MicOpt= -1 -1 -1 -1 -1 -1 -1 -1 -1 -1 -1 -1 -1 -1 -1 -1 -1 -1
 NAtoms=     78 NQM=       78 NQMF=       0 NMMI=      0 NMMIF=      0
                NMic=       0 NMicF=      0.
                    Isotopes and Nuclear Properties:
 (Nuclear quadrupole moments (NQMom) in fm**2, nuclear magnetic moments (NMagM)
  in nuclear magnetons)

  Atom         1           2           3           4           5           6           7           8           9          10
 IAtWgt=          56          55          31          16          16          14          14          12          12          12
 AtmWgt=  55.9349393  54.9380463  30.9737634  15.9949146  15.9949146  14.0030740  14.0030740  12.0000000  12.0000000  12.0000000
 NucSpn=           0           5           1           0           0           2           2           0           0           0
 AtZEff=   0.0000000   0.0000000   0.0000000   0.0000000   0.0000000   0.0000000   0.0000000   0.0000000   0.0000000   0.0000000
 NQMom=    0.0000000  33.0000000   0.0000000   0.0000000   0.0000000   2.0440000   2.0440000   0.0000000   0.0000000   0.0000000
 NMagM=    0.0000000   3.4532000   1.1316000   0.0000000   0.0000000   0.4037610   0.4037610   0.0000000   0.0000000   0.0000000
 AtZNuc=  26.0000000  25.0000000  15.0000000   8.0000000   8.0000000   7.0000000   7.0000000   6.0000000   6.0000000   6.0000000

  Atom        11          12          13          14          15          16          17          18          19          20
 IAtWgt=           1          12           1          12           1          12           1          12           1          12
 AtmWgt=   1.0078250  12.0000000   1.0078250  12.0000000   1.0078250  12.0000000   1.0078250  12.0000000   1.0078250  12.0000000
 NucSpn=           1           0           1           0           1           0           1           0           1           0
 AtZEff=   0.0000000   0.0000000   0.0000000   0.0000000   0.0000000   0.0000000   0.0000000   0.0000000   0.0000000   0.0000000
 NQMom=    0.0000000   0.0000000   0.0000000   0.0000000   0.0000000   0.0000000   0.0000000   0.0000000   0.0000000   0.0000000
 NMagM=    2.7928460   0.0000000   2.7928460   0.0000000   2.7928460   0.0000000   2.7928460   0.0000000   2.7928460   0.0000000
 AtZNuc=   1.0000000   6.0000000   1.0000000   6.0000000   1.0000000   6.0000000   1.0000000   6.0000000   1.0000000   6.0000000

  Atom        21          22          23          24          25          26          27          28          29          30
 IAtWgt=           1          12           1          12           1          12          12           1          12           1
 AtmWgt=   1.0078250  12.0000000   1.0078250  12.0000000   1.0078250  12.0000000  12.0000000   1.0078250  12.0000000   1.0078250
 NucSpn=           1           0           1           0           1           0           0           1           0           1
 AtZEff=   0.0000000   0.0000000   0.0000000   0.0000000   0.0000000   0.0000000   0.0000000   0.0000000   0.0000000   0.0000000
 NQMom=    0.0000000   0.0000000   0.0000000   0.0000000   0.0000000   0.0000000   0.0000000   0.0000000   0.0000000   0.0000000
 NMagM=    2.7928460   0.0000000   2.7928460   0.0000000   2.7928460   0.0000000   0.0000000   2.7928460   0.0000000   2.7928460
 AtZNuc=   1.0000000   6.0000000   1.0000000   6.0000000   1.0000000   6.0000000   6.0000000   1.0000000   6.0000000   1.0000000

  Atom        31          32          33          34          35          36          37          38          39          40
 IAtWgt=          12           1          12           1          12           1          12          12           1          12
 AtmWgt=  12.0000000   1.0078250  12.0000000   1.0078250  12.0000000   1.0078250  12.0000000  12.0000000   1.0078250  12.0000000
 NucSpn=           0           1           0           1           0           1           0           0           1           0
 AtZEff=   0.0000000   0.0000000   0.0000000   0.0000000   0.0000000   0.0000000   0.0000000   0.0000000   0.0000000   0.0000000
 NQMom=    0.0000000   0.0000000   0.0000000   0.0000000   0.0000000   0.0000000   0.0000000   0.0000000   0.0000000   0.0000000
 NMagM=    0.0000000   2.7928460   0.0000000   2.7928460   0.0000000   2.7928460   0.0000000   0.0000000   2.7928460   0.0000000
 AtZNuc=   6.0000000   1.0000000   6.0000000   1.0000000   6.0000000   1.0000000   6.0000000   6.0000000   1.0000000   6.0000000

  Atom        41          42          43          44          45          46          47          48          49          50
 IAtWgt=           1          12           1          12           1          12           1          12           1          12
 AtmWgt=   1.0078250  12.0000000   1.0078250  12.0000000   1.0078250  12.0000000   1.0078250  12.0000000   1.0078250  12.0000000
 NucSpn=           1           0           1           0           1           0           1           0           1           0
 AtZEff=   0.0000000   0.0000000   0.0000000   0.0000000   0.0000000   0.0000000   0.0000000   0.0000000   0.0000000   0.0000000
 NQMom=    0.0000000   0.0000000   0.0000000   0.0000000   0.0000000   0.0000000   0.0000000   0.0000000   0.0000000   0.0000000
 NMagM=    2.7928460   0.0000000   2.7928460   0.0000000   2.7928460   0.0000000   2.7928460   0.0000000   2.7928460   0.0000000
 AtZNuc=   1.0000000   6.0000000   1.0000000   6.0000000   1.0000000   6.0000000   1.0000000   6.0000000   1.0000000   6.0000000

  Atom        51          52          53          54          55          56          57          58          59          60
 IAtWgt=           1           1          12          12          12          12          12          12           1           1
 AtmWgt=   1.0078250   1.0078250  12.0000000  12.0000000  12.0000000  12.0000000  12.0000000  12.0000000   1.0078250   1.0078250
 NucSpn=           1           1           0           0           0           0           0           0           1           1
 AtZEff=   0.0000000   0.0000000   0.0000000   0.0000000   0.0000000   0.0000000   0.0000000   0.0000000   0.0000000   0.0000000
 NQMom=    0.0000000   0.0000000   0.0000000   0.0000000   0.0000000   0.0000000   0.0000000   0.0000000   0.0000000   0.0000000
 NMagM=    2.7928460   2.7928460   0.0000000   0.0000000   0.0000000   0.0000000   0.0000000   0.0000000   2.7928460   2.7928460
 AtZNuc=   1.0000000   1.0000000   6.0000000   6.0000000   6.0000000   6.0000000   6.0000000   6.0000000   1.0000000   1.0000000

  Atom        61          62          63          64          65          66          67          68          69          70
 IAtWgt=           1          12          12           1           1           1          16          12           1           1
 AtmWgt=   1.0078250  12.0000000  12.0000000   1.0078250   1.0078250   1.0078250  15.9949146  12.0000000   1.0078250   1.0078250
 NucSpn=           1           0           0           1           1           1           0           0           1           1
 AtZEff=   0.0000000   0.0000000   0.0000000   0.0000000   0.0000000   0.0000000   0.0000000   0.0000000   0.0000000   0.0000000
 NQMom=    0.0000000   0.0000000   0.0000000   0.0000000   0.0000000   0.0000000   0.0000000   0.0000000   0.0000000   0.0000000
 NMagM=    2.7928460   0.0000000   0.0000000   2.7928460   2.7928460   2.7928460   0.0000000   0.0000000   2.7928460   2.7928460
 AtZNuc=   1.0000000   6.0000000   6.0000000   1.0000000   1.0000000   1.0000000   8.0000000   6.0000000   1.0000000   1.0000000

  Atom        71          72          73          74          75          76          77          78
 IAtWgt=           1           1           1          12           1           1           1           1
 AtmWgt=   1.0078250   1.0078250   1.0078250  12.0000000   1.0078250   1.0078250   1.0078250   1.0078250
 NucSpn=           1           1           1           0           1           1           1           1
 AtZEff=   0.0000000   0.0000000   0.0000000   0.0000000   0.0000000   0.0000000   0.0000000   0.0000000
 NQMom=    0.0000000   0.0000000   0.0000000   0.0000000   0.0000000   0.0000000   0.0000000   0.0000000
 NMagM=    2.7928460   2.7928460   2.7928460   0.0000000   2.7928460   2.7928460   2.7928460   2.7928460
 AtZNuc=   1.0000000   1.0000000   1.0000000   6.0000000   1.0000000   1.0000000   1.0000000   1.0000000
 Leave Link  101 at Thu Sep  2 21:29:20 2021, MaxMem=   536870912 cpu:              12.5 elap:               0.4
 (Enter /gpfs1/apps/software/Gaussian16/AVX2/g16/l103.exe)

 GradGradGradGradGradGradGradGradGradGradGradGradGradGradGradGradGradGrad
 Berny optimization.
 Initialization pass.
                           ----------------------------
                           !    Initial Parameters    !
                           ! (Angstroms and Degrees)  !
 --------------------------                            --------------------------
 ! Name  Definition              Value          Derivative Info.                !
 --------------------------------------------------------------------------------
 ! R1    R(1,8)                  2.0529         calculate D2E/DX2 analytically  !
 ! R2    R(1,9)                  2.0614         calculate D2E/DX2 analytically  !
 ! R3    R(1,10)                 2.0544         calculate D2E/DX2 analytically  !
 ! R4    R(1,12)                 2.047          calculate D2E/DX2 analytically  !
 ! R5    R(1,14)                 2.0342         calculate D2E/DX2 analytically  !
 ! R6    R(1,16)                 2.062          calculate D2E/DX2 analytically  !
 ! R7    R(1,18)                 2.0607         calculate D2E/DX2 analytically  !
 ! R8    R(1,20)                 2.0537         calculate D2E/DX2 analytically  !
 ! R9    R(1,22)                 2.0537         calculate D2E/DX2 analytically  !
 ! R10   R(1,24)                 2.0562         calculate D2E/DX2 analytically  !
 ! R11   R(2,3)                  2.269          calculate D2E/DX2 analytically  !
 ! R12   R(2,6)                  2.1057         calculate D2E/DX2 analytically  !
 ! R13   R(2,7)                  2.0717         calculate D2E/DX2 analytically  !
 ! R14   R(2,62)                 1.7727         calculate D2E/DX2 analytically  !
 ! R15   R(2,63)                 1.7632         calculate D2E/DX2 analytically  !
 ! R16   R(2,64)                 1.7133         calculate D2E/DX2 analytically  !
 ! R17   R(3,8)                  1.8335         calculate D2E/DX2 analytically  !
 ! R18   R(3,26)                 1.8629         calculate D2E/DX2 analytically  !
 ! R19   R(3,37)                 1.8654         calculate D2E/DX2 analytically  !
 ! R20   R(4,62)                 1.1815         calculate D2E/DX2 analytically  !
 ! R21   R(5,63)                 1.1832         calculate D2E/DX2 analytically  !
 ! R22   R(6,48)                 1.4854         calculate D2E/DX2 analytically  !
 ! R23   R(6,50)                 1.4688         calculate D2E/DX2 analytically  !
 ! R24   R(6,66)                 1.3087         calculate D2E/DX2 analytically  !
 ! R25   R(7,53)                 1.3643         calculate D2E/DX2 analytically  !
 ! R26   R(7,54)                 1.3592         calculate D2E/DX2 analytically  !
 ! R27   R(8,9)                  1.4604         calculate D2E/DX2 analytically  !
 ! R28   R(8,14)                 1.4526         calculate D2E/DX2 analytically  !
 ! R29   R(9,10)                 1.4443         calculate D2E/DX2 analytically  !
 ! R30   R(9,48)                 1.5276         calculate D2E/DX2 analytically  !
 ! R31   R(10,11)                1.0973         calculate D2E/DX2 analytically  !
 ! R32   R(10,12)                1.4384         calculate D2E/DX2 analytically  !
 ! R33   R(12,13)                1.0984         calculate D2E/DX2 analytically  !
 ! R34   R(12,14)                1.4369         calculate D2E/DX2 analytically  !
 ! R35   R(14,15)                1.0975         calculate D2E/DX2 analytically  !
 ! R36   R(16,17)                1.0974         calculate D2E/DX2 analytically  !
 ! R37   R(16,18)                1.4387         calculate D2E/DX2 analytically  !
 ! R38   R(16,24)                1.4422         calculate D2E/DX2 analytically  !
 ! R39   R(18,19)                1.0983         calculate D2E/DX2 analytically  !
 ! R40   R(18,20)                1.4408         calculate D2E/DX2 analytically  !
 ! R41   R(20,21)                1.0983         calculate D2E/DX2 analytically  !
 ! R42   R(20,22)                1.4411         calculate D2E/DX2 analytically  !
 ! R43   R(22,23)                1.0983         calculate D2E/DX2 analytically  !
 ! R44   R(22,24)                1.4399         calculate D2E/DX2 analytically  !
 ! R45   R(24,25)                1.0977         calculate D2E/DX2 analytically  !
 ! R46   R(26,27)                1.4156         calculate D2E/DX2 analytically  !
 ! R47   R(26,35)                1.4114         calculate D2E/DX2 analytically  !
 ! R48   R(27,28)                1.1022         calculate D2E/DX2 analytically  !
 ! R49   R(27,29)                1.4044         calculate D2E/DX2 analytically  !
 ! R50   R(29,30)                1.1017         calculate D2E/DX2 analytically  !
 ! R51   R(29,31)                1.4081         calculate D2E/DX2 analytically  !
 ! R52   R(31,32)                1.1016         calculate D2E/DX2 analytically  !
 ! R53   R(31,33)                1.4052         calculate D2E/DX2 analytically  !
 ! R54   R(33,34)                1.1018         calculate D2E/DX2 analytically  !
 ! R55   R(33,35)                1.4084         calculate D2E/DX2 analytically  !
 ! R56   R(35,36)                1.1008         calculate D2E/DX2 analytically  !
 ! R57   R(37,38)                1.4116         calculate D2E/DX2 analytically  !
 ! R58   R(37,46)                1.4151         calculate D2E/DX2 analytically  !
 ! R59   R(38,39)                1.0986         calculate D2E/DX2 analytically  !
 ! R60   R(38,40)                1.4071         calculate D2E/DX2 analytically  !
 ! R61   R(40,41)                1.1016         calculate D2E/DX2 analytically  !
 ! R62   R(40,42)                1.4058         calculate D2E/DX2 analytically  !
 ! R63   R(42,43)                1.1016         calculate D2E/DX2 analytically  !
 ! R64   R(42,44)                1.4071         calculate D2E/DX2 analytically  !
 ! R65   R(44,45)                1.1017         calculate D2E/DX2 analytically  !
 ! R66   R(44,46)                1.4056         calculate D2E/DX2 analytically  !
 ! R67   R(46,47)                1.1011         calculate D2E/DX2 analytically  !
 ! R68   R(48,49)                1.1093         calculate D2E/DX2 analytically  !
 ! R69   R(48,58)                1.5426         calculate D2E/DX2 analytically  !
 ! R70   R(50,51)                1.1147         calculate D2E/DX2 analytically  !
 ! R71   R(50,52)                1.1195         calculate D2E/DX2 analytically  !
 ! R72   R(50,53)                1.5055         calculate D2E/DX2 analytically  !
 ! R73   R(53,57)                1.3971         calculate D2E/DX2 analytically  !
 ! R74   R(54,55)                1.39           calculate D2E/DX2 analytically  !
 ! R75   R(54,73)                1.1002         calculate D2E/DX2 analytically  !
 ! R76   R(55,56)                1.4308         calculate D2E/DX2 analytically  !
 ! R77   R(55,72)                1.0973         calculate D2E/DX2 analytically  !
 ! R78   R(56,57)                1.4275         calculate D2E/DX2 analytically  !
 ! R79   R(56,78)                1.07           calculate D2E/DX2 analytically  !
 ! R80   R(57,71)                1.0978         calculate D2E/DX2 analytically  !
 ! R81   R(58,59)                1.109          calculate D2E/DX2 analytically  !
 ! R82   R(58,60)                1.1096         calculate D2E/DX2 analytically  !
 ! R83   R(58,61)                1.1085         calculate D2E/DX2 analytically  !
 ! R84   R(64,65)                0.854          calculate D2E/DX2 analytically  !
 ! R85   R(66,67)                1.2132         calculate D2E/DX2 analytically  !
 ! R86   R(67,68)                1.4047         calculate D2E/DX2 analytically  !
 ! R87   R(68,69)                1.1237         calculate D2E/DX2 analytically  !
 ! R88   R(68,70)                1.1264         calculate D2E/DX2 analytically  !
 ! R89   R(68,74)                1.5322         calculate D2E/DX2 analytically  !
 ! R90   R(74,75)                1.1111         calculate D2E/DX2 analytically  !
 ! R91   R(74,76)                1.1115         calculate D2E/DX2 analytically  !
 ! R92   R(74,77)                1.1111         calculate D2E/DX2 analytically  !
 ! A1    A(8,1,10)              69.2989         calculate D2E/DX2 analytically  !
 ! A2    A(8,1,12)              69.6082         calculate D2E/DX2 analytically  !
 ! A3    A(8,1,16)             112.1622         calculate D2E/DX2 analytically  !
 ! A4    A(8,1,18)             137.136          calculate D2E/DX2 analytically  !
 ! A5    A(8,1,22)             143.3826         calculate D2E/DX2 analytically  !
 ! A6    A(8,1,24)             114.7551         calculate D2E/DX2 analytically  !
 ! A7    A(9,1,12)              69.6696         calculate D2E/DX2 analytically  !
 ! A8    A(9,1,14)              70.1409         calculate D2E/DX2 analytically  !
 ! A9    A(9,1,16)             114.2293         calculate D2E/DX2 analytically  !
 ! A10   A(9,1,18)             109.5113         calculate D2E/DX2 analytically  !
 ! A11   A(9,1,20)             133.9205         calculate D2E/DX2 analytically  !
 ! A12   A(9,1,24)             144.8623         calculate D2E/DX2 analytically  !
 ! A13   A(10,1,14)             69.3688         calculate D2E/DX2 analytically  !
 ! A14   A(10,1,16)            142.8708         calculate D2E/DX2 analytically  !
 ! A15   A(10,1,18)            111.4584         calculate D2E/DX2 analytically  !
 ! A16   A(10,1,20)            107.0579         calculate D2E/DX2 analytically  !
 ! A17   A(10,1,22)            133.1076         calculate D2E/DX2 analytically  !
 ! A18   A(12,1,18)            140.2573         calculate D2E/DX2 analytically  !
 ! A19   A(12,1,20)            109.5778         calculate D2E/DX2 analytically  !
 ! A20   A(12,1,22)            107.2654         calculate D2E/DX2 analytically  !
 ! A21   A(12,1,24)            134.9394         calculate D2E/DX2 analytically  !
 ! A22   A(14,1,16)            137.7385         calculate D2E/DX2 analytically  !
 ! A23   A(14,1,20)            140.3332         calculate D2E/DX2 analytically  !
 ! A24   A(14,1,22)            111.4951         calculate D2E/DX2 analytically  !
 ! A25   A(14,1,24)            110.363          calculate D2E/DX2 analytically  !
 ! A26   A(16,1,20)             68.9646         calculate D2E/DX2 analytically  !
 ! A27   A(16,1,22)             68.9999         calculate D2E/DX2 analytically  !
 ! A28   A(18,1,22)             69.0278         calculate D2E/DX2 analytically  !
 ! A29   A(18,1,24)             68.9673         calculate D2E/DX2 analytically  !
 ! A30   A(20,1,24)             69.0988         calculate D2E/DX2 analytically  !
 ! A31   A(3,2,6)               89.4757         calculate D2E/DX2 analytically  !
 ! A32   A(3,2,7)               94.338          calculate D2E/DX2 analytically  !
 ! A33   A(3,2,62)              91.9067         calculate D2E/DX2 analytically  !
 ! A34   A(3,2,63)              94.3805         calculate D2E/DX2 analytically  !
 ! A35   A(6,2,7)               79.3801         calculate D2E/DX2 analytically  !
 ! A36   A(6,2,63)              94.881          calculate D2E/DX2 analytically  !
 ! A37   A(6,2,64)              96.9395         calculate D2E/DX2 analytically  !
 ! A38   A(7,2,62)              94.8639         calculate D2E/DX2 analytically  !
 ! A39   A(7,2,64)              80.656          calculate D2E/DX2 analytically  !
 ! A40   A(62,2,63)             90.6622         calculate D2E/DX2 analytically  !
 ! A41   A(62,2,64)             81.0862         calculate D2E/DX2 analytically  !
 ! A42   A(63,2,64)             91.432          calculate D2E/DX2 analytically  !
 ! A43   A(2,3,8)              113.3628         calculate D2E/DX2 analytically  !
 ! A44   A(2,3,26)             113.2106         calculate D2E/DX2 analytically  !
 ! A45   A(2,3,37)             120.1158         calculate D2E/DX2 analytically  !
 ! A46   A(8,3,26)             103.5543         calculate D2E/DX2 analytically  !
 ! A47   A(8,3,37)             104.1543         calculate D2E/DX2 analytically  !
 ! A48   A(26,3,37)            100.4383         calculate D2E/DX2 analytically  !
 ! A49   A(2,6,48)             119.0842         calculate D2E/DX2 analytically  !
 ! A50   A(2,6,50)             111.2192         calculate D2E/DX2 analytically  !
 ! A51   A(2,6,66)              95.9241         calculate D2E/DX2 analytically  !
 ! A52   A(48,6,50)            112.7204         calculate D2E/DX2 analytically  !
 ! A53   A(48,6,66)            106.7218         calculate D2E/DX2 analytically  !
 ! A54   A(50,6,66)            109.4031         calculate D2E/DX2 analytically  !
 ! A55   A(2,7,53)             116.2795         calculate D2E/DX2 analytically  !
 ! A56   A(2,7,54)             126.1556         calculate D2E/DX2 analytically  !
 ! A57   A(53,7,54)            117.0428         calculate D2E/DX2 analytically  !
 ! A58   A(1,8,3)              134.0348         calculate D2E/DX2 analytically  !
 ! A59   A(3,8,9)              124.4624         calculate D2E/DX2 analytically  !
 ! A60   A(3,8,14)             127.2076         calculate D2E/DX2 analytically  !
 ! A61   A(9,8,14)             107.7776         calculate D2E/DX2 analytically  !
 ! A62   A(1,9,48)             128.0302         calculate D2E/DX2 analytically  !
 ! A63   A(8,9,10)             107.016          calculate D2E/DX2 analytically  !
 ! A64   A(8,9,48)             126.0832         calculate D2E/DX2 analytically  !
 ! A65   A(10,9,48)            126.8859         calculate D2E/DX2 analytically  !
 ! A66   A(1,10,11)            125.7186         calculate D2E/DX2 analytically  !
 ! A67   A(9,10,11)            125.7249         calculate D2E/DX2 analytically  !
 ! A68   A(9,10,12)            108.9921         calculate D2E/DX2 analytically  !
 ! A69   A(11,10,12)           125.2565         calculate D2E/DX2 analytically  !
 ! A70   A(1,12,13)            125.5704         calculate D2E/DX2 analytically  !
 ! A71   A(10,12,13)           125.9838         calculate D2E/DX2 analytically  !
 ! A72   A(10,12,14)           108.0372         calculate D2E/DX2 analytically  !
 ! A73   A(13,12,14)           125.9557         calculate D2E/DX2 analytically  !
 ! A74   A(1,14,15)            126.4055         calculate D2E/DX2 analytically  !
 ! A75   A(8,14,12)            108.1669         calculate D2E/DX2 analytically  !
 ! A76   A(8,14,15)            126.0094         calculate D2E/DX2 analytically  !
 ! A77   A(12,14,15)           125.8208         calculate D2E/DX2 analytically  !
 ! A78   A(1,16,17)            125.6229         calculate D2E/DX2 analytically  !
 ! A79   A(17,16,18)           125.6682         calculate D2E/DX2 analytically  !
 ! A80   A(17,16,24)           126.3008         calculate D2E/DX2 analytically  !
 ! A81   A(18,16,24)           108.0144         calculate D2E/DX2 analytically  !
 ! A82   A(1,18,19)            125.8574         calculate D2E/DX2 analytically  !
 ! A83   A(16,18,19)           126.001          calculate D2E/DX2 analytically  !
 ! A84   A(16,18,20)           108.0371         calculate D2E/DX2 analytically  !
 ! A85   A(19,18,20)           125.9525         calculate D2E/DX2 analytically  !
 ! A86   A(1,20,21)            125.3452         calculate D2E/DX2 analytically  !
 ! A87   A(18,20,21)           126.0079         calculate D2E/DX2 analytically  !
 ! A88   A(18,20,22)           107.9824         calculate D2E/DX2 analytically  !
 ! A89   A(21,20,22)           125.9972         calculate D2E/DX2 analytically  !
 ! A90   A(1,22,23)            125.3924         calculate D2E/DX2 analytically  !
 ! A91   A(20,22,23)           125.9336         calculate D2E/DX2 analytically  !
 ! A92   A(20,22,24)           108.0009         calculate D2E/DX2 analytically  !
 ! A93   A(23,22,24)           126.0492         calculate D2E/DX2 analytically  !
 ! A94   A(1,24,25)            125.6709         calculate D2E/DX2 analytically  !
 ! A95   A(16,24,22)           107.9647         calculate D2E/DX2 analytically  !
 ! A96   A(16,24,25)           125.8691         calculate D2E/DX2 analytically  !
 ! A97   A(22,24,25)           126.1586         calculate D2E/DX2 analytically  !
 ! A98   A(3,26,27)            117.7949         calculate D2E/DX2 analytically  !
 ! A99   A(3,26,35)            123.3028         calculate D2E/DX2 analytically  !
 ! A100  A(27,26,35)           118.803          calculate D2E/DX2 analytically  !
 ! A101  A(26,27,28)           119.931          calculate D2E/DX2 analytically  !
 ! A102  A(26,27,29)           120.6253         calculate D2E/DX2 analytically  !
 ! A103  A(28,27,29)           119.4419         calculate D2E/DX2 analytically  !
 ! A104  A(27,29,30)           119.6642         calculate D2E/DX2 analytically  !
 ! A105  A(27,29,31)           120.1856         calculate D2E/DX2 analytically  !
 ! A106  A(30,29,31)           120.1502         calculate D2E/DX2 analytically  !
 ! A107  A(29,31,32)           120.1862         calculate D2E/DX2 analytically  !
 ! A108  A(29,31,33)           119.5878         calculate D2E/DX2 analytically  !
 ! A109  A(32,31,33)           120.226          calculate D2E/DX2 analytically  !
 ! A110  A(31,33,34)           120.1629         calculate D2E/DX2 analytically  !
 ! A111  A(31,33,35)           120.3094         calculate D2E/DX2 analytically  !
 ! A112  A(34,33,35)           119.5267         calculate D2E/DX2 analytically  !
 ! A113  A(26,35,33)           120.4835         calculate D2E/DX2 analytically  !
 ! A114  A(26,35,36)           120.1466         calculate D2E/DX2 analytically  !
 ! A115  A(33,35,36)           119.3644         calculate D2E/DX2 analytically  !
 ! A116  A(3,37,38)            120.8418         calculate D2E/DX2 analytically  !
 ! A117  A(3,37,46)            120.4757         calculate D2E/DX2 analytically  !
 ! A118  A(38,37,46)           118.6664         calculate D2E/DX2 analytically  !
 ! A119  A(37,38,39)           120.2265         calculate D2E/DX2 analytically  !
 ! A120  A(37,38,40)           120.6084         calculate D2E/DX2 analytically  !
 ! A121  A(39,38,40)           119.1648         calculate D2E/DX2 analytically  !
 ! A122  A(38,40,41)           119.5315         calculate D2E/DX2 analytically  !
 ! A123  A(38,40,42)           120.3004         calculate D2E/DX2 analytically  !
 ! A124  A(41,40,42)           120.1678         calculate D2E/DX2 analytically  !
 ! A125  A(40,42,43)           120.2449         calculate D2E/DX2 analytically  !
 ! A126  A(40,42,44)           119.5534         calculate D2E/DX2 analytically  !
 ! A127  A(43,42,44)           120.2002         calculate D2E/DX2 analytically  !
 ! A128  A(42,44,45)           120.1878         calculate D2E/DX2 analytically  !
 ! A129  A(42,44,46)           120.1823         calculate D2E/DX2 analytically  !
 ! A130  A(45,44,46)           119.6286         calculate D2E/DX2 analytically  !
 ! A131  A(37,46,44)           120.6836         calculate D2E/DX2 analytically  !
 ! A132  A(37,46,47)           120.1006         calculate D2E/DX2 analytically  !
 ! A133  A(44,46,47)           119.2112         calculate D2E/DX2 analytically  !
 ! A134  A(6,48,9)             112.9302         calculate D2E/DX2 analytically  !
 ! A135  A(6,48,49)            104.9557         calculate D2E/DX2 analytically  !
 ! A136  A(6,48,58)            112.1007         calculate D2E/DX2 analytically  !
 ! A137  A(9,48,49)            107.6301         calculate D2E/DX2 analytically  !
 ! A138  A(9,48,58)            112.0945         calculate D2E/DX2 analytically  !
 ! A139  A(49,48,58)           106.5539         calculate D2E/DX2 analytically  !
 ! A140  A(6,50,51)            112.6137         calculate D2E/DX2 analytically  !
 ! A141  A(6,50,52)            111.0091         calculate D2E/DX2 analytically  !
 ! A142  A(6,50,53)            110.436          calculate D2E/DX2 analytically  !
 ! A143  A(51,50,52)           105.4456         calculate D2E/DX2 analytically  !
 ! A144  A(51,50,53)           109.7833         calculate D2E/DX2 analytically  !
 ! A145  A(52,50,53)           107.3149         calculate D2E/DX2 analytically  !
 ! A146  A(7,53,50)            114.8672         calculate D2E/DX2 analytically  !
 ! A147  A(7,53,57)            122.8466         calculate D2E/DX2 analytically  !
 ! A148  A(50,53,57)           122.2495         calculate D2E/DX2 analytically  !
 ! A149  A(7,54,55)            124.0428         calculate D2E/DX2 analytically  !
 ! A150  A(7,54,73)            116.3193         calculate D2E/DX2 analytically  !
 ! A151  A(55,54,73)           119.6368         calculate D2E/DX2 analytically  !
 ! A152  A(54,55,56)           119.8549         calculate D2E/DX2 analytically  !
 ! A153  A(54,55,72)           118.3952         calculate D2E/DX2 analytically  !
 ! A154  A(56,55,72)           121.7479         calculate D2E/DX2 analytically  !
 ! A155  A(55,56,57)           115.5842         calculate D2E/DX2 analytically  !
 ! A156  A(55,56,78)           122.2079         calculate D2E/DX2 analytically  !
 ! A157  A(57,56,78)           122.2079         calculate D2E/DX2 analytically  !
 ! A158  A(53,57,56)           120.6191         calculate D2E/DX2 analytically  !
 ! A159  A(53,57,71)           118.133          calculate D2E/DX2 analytically  !
 ! A160  A(56,57,71)           121.2473         calculate D2E/DX2 analytically  !
 ! A161  A(48,58,59)           110.7831         calculate D2E/DX2 analytically  !
 ! A162  A(48,58,60)           112.5327         calculate D2E/DX2 analytically  !
 ! A163  A(48,58,61)           109.0566         calculate D2E/DX2 analytically  !
 ! A164  A(59,58,60)           107.6477         calculate D2E/DX2 analytically  !
 ! A165  A(59,58,61)           108.0137         calculate D2E/DX2 analytically  !
 ! A166  A(60,58,61)           108.6844         calculate D2E/DX2 analytically  !
 ! A167  A(2,64,65)             87.6879         calculate D2E/DX2 analytically  !
 ! A168  A(66,67,68)           113.2886         calculate D2E/DX2 analytically  !
 ! A169  A(67,68,69)           111.7958         calculate D2E/DX2 analytically  !
 ! A170  A(67,68,70)           111.8827         calculate D2E/DX2 analytically  !
 ! A171  A(67,68,74)           111.0869         calculate D2E/DX2 analytically  !
 ! A172  A(69,68,70)           105.0587         calculate D2E/DX2 analytically  !
 ! A173  A(69,68,74)           108.4992         calculate D2E/DX2 analytically  !
 ! A174  A(70,68,74)           108.257          calculate D2E/DX2 analytically  !
 ! A175  A(68,74,75)           110.4844         calculate D2E/DX2 analytically  !
 ! A176  A(68,74,76)           111.5975         calculate D2E/DX2 analytically  !
 ! A177  A(68,74,77)           110.6329         calculate D2E/DX2 analytically  !
 ! A178  A(75,74,76)           108.2658         calculate D2E/DX2 analytically  !
 ! A179  A(75,74,77)           107.6033         calculate D2E/DX2 analytically  !
 ! A180  A(76,74,77)           108.1229         calculate D2E/DX2 analytically  !
 ! A181  L(8,1,20,10,-1)       176.3568         calculate D2E/DX2 analytically  !
 ! A182  L(9,1,22,12,-1)       176.935          calculate D2E/DX2 analytically  !
 ! A183  L(10,1,24,8,-1)       184.0541         calculate D2E/DX2 analytically  !
 ! A184  L(12,1,16,8,-1)       181.7704         calculate D2E/DX2 analytically  !
 ! A185  L(14,1,18,9,-1)       179.6523         calculate D2E/DX2 analytically  !
 ! A186  L(3,2,64,6,-1)        186.4152         calculate D2E/DX2 analytically  !
 ! A187  L(6,2,62,3,-1)        181.3823         calculate D2E/DX2 analytically  !
 ! A188  L(7,2,63,3,-1)        188.7185         calculate D2E/DX2 analytically  !
 ! A189  L(2,62,4,25,-1)       179.1883         calculate D2E/DX2 analytically  !
 ! A190  L(2,63,5,1,-1)        184.5588         calculate D2E/DX2 analytically  !
 ! A191  L(6,66,67,4,-1)       170.511          calculate D2E/DX2 analytically  !
 ! A192  L(8,1,20,10,-2)       177.2092         calculate D2E/DX2 analytically  !
 ! A193  L(9,1,22,12,-2)       174.1364         calculate D2E/DX2 analytically  !
 ! A194  L(10,1,24,8,-2)       175.1712         calculate D2E/DX2 analytically  !
 ! A195  L(12,1,16,8,-2)       175.98           calculate D2E/DX2 analytically  !
 ! A196  L(14,1,18,9,-2)       178.3506         calculate D2E/DX2 analytically  !
 ! A197  L(3,2,64,6,-2)        173.6046         calculate D2E/DX2 analytically  !
 ! A198  L(6,2,62,3,-2)        185.6658         calculate D2E/DX2 analytically  !
 ! A199  L(7,2,63,3,-2)        174.1635         calculate D2E/DX2 analytically  !
 ! A200  L(2,62,4,25,-2)       180.4141         calculate D2E/DX2 analytically  !
 ! A201  L(2,63,5,1,-2)        178.4034         calculate D2E/DX2 analytically  !
 ! A202  L(6,66,67,4,-2)       175.1898         calculate D2E/DX2 analytically  !
 ! D1    D(10,1,8,3)          -156.6139         calculate D2E/DX2 analytically  !
 ! D2    D(12,1,8,3)           159.3953         calculate D2E/DX2 analytically  !
 ! D3    D(16,1,8,3)           -16.5847         calculate D2E/DX2 analytically  !
 ! D4    D(18,1,8,3)           -56.9586         calculate D2E/DX2 analytically  !
 ! D5    D(22,1,8,3)            67.6395         calculate D2E/DX2 analytically  !
 ! D6    D(24,1,8,3)            28.215          calculate D2E/DX2 analytically  !
 ! D7    D(12,1,9,48)         -158.2043         calculate D2E/DX2 analytically  !
 ! D8    D(14,1,9,48)          157.7649         calculate D2E/DX2 analytically  !
 ! D9    D(16,1,9,48)           23.3102         calculate D2E/DX2 analytically  !
 ! D10   D(18,1,9,48)          -20.5857         calculate D2E/DX2 analytically  !
 ! D11   D(20,1,9,48)          -60.1971         calculate D2E/DX2 analytically  !
 ! D12   D(24,1,9,48)           60.3174         calculate D2E/DX2 analytically  !
 ! D13   D(8,1,10,11)          158.4955         calculate D2E/DX2 analytically  !
 ! D14   D(14,1,10,11)        -156.8596         calculate D2E/DX2 analytically  !
 ! D15   D(16,1,10,11)          58.7685         calculate D2E/DX2 analytically  !
 ! D16   D(18,1,10,11)          24.5972         calculate D2E/DX2 analytically  !
 ! D17   D(20,1,10,11)         -18.7137         calculate D2E/DX2 analytically  !
 ! D18   D(22,1,10,11)         -56.2637         calculate D2E/DX2 analytically  !
 ! D19   D(8,1,12,13)         -158.0758         calculate D2E/DX2 analytically  !
 ! D20   D(9,1,12,13)          157.4283         calculate D2E/DX2 analytically  !
 ! D21   D(18,1,12,13)          61.0267         calculate D2E/DX2 analytically  !
 ! D22   D(20,1,12,13)          26.6328         calculate D2E/DX2 analytically  !
 ! D23   D(22,1,12,13)         -16.7081         calculate D2E/DX2 analytically  !
 ! D24   D(24,1,12,13)         -52.9959         calculate D2E/DX2 analytically  !
 ! D25   D(9,1,14,15)         -158.2573         calculate D2E/DX2 analytically  !
 ! D26   D(10,1,14,15)         157.8225         calculate D2E/DX2 analytically  !
 ! D27   D(16,1,14,15)         -53.7005         calculate D2E/DX2 analytically  !
 ! D28   D(20,1,14,15)          65.7016         calculate D2E/DX2 analytically  !
 ! D29   D(22,1,14,15)          28.2902         calculate D2E/DX2 analytically  !
 ! D30   D(24,1,14,15)         -15.755          calculate D2E/DX2 analytically  !
 ! D31   D(8,1,16,17)          -17.7654         calculate D2E/DX2 analytically  !
 ! D32   D(9,1,16,17)           27.6154         calculate D2E/DX2 analytically  !
 ! D33   D(10,1,16,17)          66.8214         calculate D2E/DX2 analytically  !
 ! D34   D(14,1,16,17)         -59.0207         calculate D2E/DX2 analytically  !
 ! D35   D(20,1,16,17)         157.5497         calculate D2E/DX2 analytically  !
 ! D36   D(22,1,16,17)        -158.2963         calculate D2E/DX2 analytically  !
 ! D37   D(8,1,18,19)          -53.8219         calculate D2E/DX2 analytically  !
 ! D38   D(9,1,18,19)          -15.5225         calculate D2E/DX2 analytically  !
 ! D39   D(10,1,18,19)          28.4302         calculate D2E/DX2 analytically  !
 ! D40   D(12,1,18,19)          65.829          calculate D2E/DX2 analytically  !
 ! D41   D(22,1,18,19)         157.9016         calculate D2E/DX2 analytically  !
 ! D42   D(24,1,18,19)        -158.0147         calculate D2E/DX2 analytically  !
 ! D43   D(9,1,20,21)          -54.0889         calculate D2E/DX2 analytically  !
 ! D44   D(10,1,20,21)         -17.129          calculate D2E/DX2 analytically  !
 ! D45   D(12,1,20,21)          26.1554         calculate D2E/DX2 analytically  !
 ! D46   D(14,1,20,21)          60.9025         calculate D2E/DX2 analytically  !
 ! D47   D(16,1,20,21)        -157.98           calculate D2E/DX2 analytically  !
 ! D48   D(24,1,20,21)         157.9676         calculate D2E/DX2 analytically  !
 ! D49   D(8,1,22,23)           58.8971         calculate D2E/DX2 analytically  !
 ! D50   D(10,1,22,23)         -57.7061         calculate D2E/DX2 analytically  !
 ! D51   D(12,1,22,23)         -19.9457         calculate D2E/DX2 analytically  !
 ! D52   D(14,1,22,23)          23.6623         calculate D2E/DX2 analytically  !
 ! D53   D(16,1,22,23)         158.1554         calculate D2E/DX2 analytically  !
 ! D54   D(18,1,22,23)        -157.9503         calculate D2E/DX2 analytically  !
 ! D55   D(8,1,24,25)           24.3456         calculate D2E/DX2 analytically  !
 ! D56   D(9,1,24,25)           63.4509         calculate D2E/DX2 analytically  !
 ! D57   D(12,1,24,25)         -60.9557         calculate D2E/DX2 analytically  !
 ! D58   D(14,1,24,25)         -20.6826         calculate D2E/DX2 analytically  !
 ! D59   D(18,1,24,25)         157.774          calculate D2E/DX2 analytically  !
 ! D60   D(20,1,24,25)        -158.1739         calculate D2E/DX2 analytically  !
 ! D61   D(6,2,3,8)             22.7289         calculate D2E/DX2 analytically  !
 ! D62   D(6,2,3,26)           -94.853          calculate D2E/DX2 analytically  !
 ! D63   D(6,2,3,37)           146.6813         calculate D2E/DX2 analytically  !
 ! D64   D(7,2,3,8)            102.0372         calculate D2E/DX2 analytically  !
 ! D65   D(7,2,3,26)           -15.5447         calculate D2E/DX2 analytically  !
 ! D66   D(7,2,3,37)          -134.0104         calculate D2E/DX2 analytically  !
 ! D67   D(62,2,3,8)          -162.9369         calculate D2E/DX2 analytically  !
 ! D68   D(62,2,3,26)           79.4811         calculate D2E/DX2 analytically  !
 ! D69   D(62,2,3,37)          -38.9845         calculate D2E/DX2 analytically  !
 ! D70   D(63,2,3,8)           -72.1263         calculate D2E/DX2 analytically  !
 ! D71   D(63,2,3,26)          170.2918         calculate D2E/DX2 analytically  !
 ! D72   D(63,2,3,37)           51.8261         calculate D2E/DX2 analytically  !
 ! D73   D(3,2,6,48)           -58.7227         calculate D2E/DX2 analytically  !
 ! D74   D(3,2,6,50)            74.913          calculate D2E/DX2 analytically  !
 ! D75   D(3,2,6,66)          -171.598          calculate D2E/DX2 analytically  !
 ! D76   D(7,2,6,48)          -153.2353         calculate D2E/DX2 analytically  !
 ! D77   D(7,2,6,50)           -19.5996         calculate D2E/DX2 analytically  !
 ! D78   D(7,2,6,66)            93.8895         calculate D2E/DX2 analytically  !
 ! D79   D(63,2,6,48)           35.6291         calculate D2E/DX2 analytically  !
 ! D80   D(63,2,6,50)          169.2647         calculate D2E/DX2 analytically  !
 ! D81   D(63,2,6,66)          -77.2462         calculate D2E/DX2 analytically  !
 ! D82   D(64,2,6,48)          127.6727         calculate D2E/DX2 analytically  !
 ! D83   D(64,2,6,50)          -98.6916         calculate D2E/DX2 analytically  !
 ! D84   D(64,2,6,66)           14.7974         calculate D2E/DX2 analytically  !
 ! D85   D(3,2,7,53)           -83.8376         calculate D2E/DX2 analytically  !
 ! D86   D(3,2,7,54)           104.7395         calculate D2E/DX2 analytically  !
 ! D87   D(6,2,7,53)             4.8123         calculate D2E/DX2 analytically  !
 ! D88   D(6,2,7,54)          -166.6105         calculate D2E/DX2 analytically  !
 ! D89   D(62,2,7,53)         -176.1268         calculate D2E/DX2 analytically  !
 ! D90   D(62,2,7,54)           12.4504         calculate D2E/DX2 analytically  !
 ! D91   D(64,2,7,53)          103.7542         calculate D2E/DX2 analytically  !
 ! D92   D(64,2,7,54)          -67.6686         calculate D2E/DX2 analytically  !
 ! D93   D(6,2,64,65)          -22.4534         calculate D2E/DX2 analytically  !
 ! D94   D(7,2,64,65)         -100.4379         calculate D2E/DX2 analytically  !
 ! D95   D(62,2,64,65)         163.0861         calculate D2E/DX2 analytically  !
 ! D96   D(63,2,64,65)          72.6402         calculate D2E/DX2 analytically  !
 ! D97   D(2,3,8,1)             89.1852         calculate D2E/DX2 analytically  !
 ! D98   D(2,3,8,9)             -5.0157         calculate D2E/DX2 analytically  !
 ! D99   D(2,3,8,14)          -175.4308         calculate D2E/DX2 analytically  !
 ! D100  D(26,3,8,1)          -147.739          calculate D2E/DX2 analytically  !
 ! D101  D(26,3,8,9)           118.0601         calculate D2E/DX2 analytically  !
 ! D102  D(26,3,8,14)          -52.3549         calculate D2E/DX2 analytically  !
 ! D103  D(37,3,8,1)           -43.0838         calculate D2E/DX2 analytically  !
 ! D104  D(37,3,8,9)          -137.2847         calculate D2E/DX2 analytically  !
 ! D105  D(37,3,8,14)           52.3003         calculate D2E/DX2 analytically  !
 ! D106  D(2,3,26,27)          -69.7076         calculate D2E/DX2 analytically  !
 ! D107  D(2,3,26,35)          106.6195         calculate D2E/DX2 analytically  !
 ! D108  D(8,3,26,27)          167.1162         calculate D2E/DX2 analytically  !
 ! D109  D(8,3,26,35)          -16.5567         calculate D2E/DX2 analytically  !
 ! D110  D(37,3,26,27)          59.6474         calculate D2E/DX2 analytically  !
 ! D111  D(37,3,26,35)        -124.0255         calculate D2E/DX2 analytically  !
 ! D112  D(2,3,37,38)          -22.5561         calculate D2E/DX2 analytically  !
 ! D113  D(2,3,37,46)          158.9238         calculate D2E/DX2 analytically  !
 ! D114  D(8,3,37,38)          105.6922         calculate D2E/DX2 analytically  !
 ! D115  D(8,3,37,46)          -72.8279         calculate D2E/DX2 analytically  !
 ! D116  D(26,3,37,38)        -147.3161         calculate D2E/DX2 analytically  !
 ! D117  D(26,3,37,46)          34.1637         calculate D2E/DX2 analytically  !
 ! D118  D(2,6,48,9)            72.7201         calculate D2E/DX2 analytically  !
 ! D119  D(2,6,48,49)          -44.2412         calculate D2E/DX2 analytically  !
 ! D120  D(2,6,48,58)         -159.5036         calculate D2E/DX2 analytically  !
 ! D121  D(50,6,48,9)          -60.2732         calculate D2E/DX2 analytically  !
 ! D122  D(50,6,48,49)        -177.2346         calculate D2E/DX2 analytically  !
 ! D123  D(50,6,48,58)          67.503          calculate D2E/DX2 analytically  !
 ! D124  D(66,6,48,9)          179.6036         calculate D2E/DX2 analytically  !
 ! D125  D(66,6,48,49)          62.6422         calculate D2E/DX2 analytically  !
 ! D126  D(66,6,48,58)         -52.6202         calculate D2E/DX2 analytically  !
 ! D127  D(2,6,50,51)          153.3521         calculate D2E/DX2 analytically  !
 ! D128  D(2,6,50,52)          -88.6773         calculate D2E/DX2 analytically  !
 ! D129  D(2,6,50,53)           30.2259         calculate D2E/DX2 analytically  !
 ! D130  D(48,6,50,51)         -69.9379         calculate D2E/DX2 analytically  !
 ! D131  D(48,6,50,52)          48.0327         calculate D2E/DX2 analytically  !
 ! D132  D(48,6,50,53)         166.9358         calculate D2E/DX2 analytically  !
 ! D133  D(66,6,50,51)          48.6298         calculate D2E/DX2 analytically  !
 ! D134  D(66,6,50,52)         166.6004         calculate D2E/DX2 analytically  !
 ! D135  D(66,6,50,53)         -74.4965         calculate D2E/DX2 analytically  !
 ! D136  D(2,6,67,68)         -104.7671         calculate D2E/DX2 analytically  !
 ! D137  D(48,6,67,68)         134.1229         calculate D2E/DX2 analytically  !
 ! D138  D(50,6,67,68)           9.0097         calculate D2E/DX2 analytically  !
 ! D139  D(2,7,53,50)           10.9799         calculate D2E/DX2 analytically  !
 ! D140  D(2,7,53,57)         -171.178          calculate D2E/DX2 analytically  !
 ! D141  D(54,7,53,50)        -176.7904         calculate D2E/DX2 analytically  !
 ! D142  D(54,7,53,57)           1.0517         calculate D2E/DX2 analytically  !
 ! D143  D(2,7,54,55)          171.0569         calculate D2E/DX2 analytically  !
 ! D144  D(2,7,54,73)           -8.554          calculate D2E/DX2 analytically  !
 ! D145  D(53,7,54,55)          -0.308          calculate D2E/DX2 analytically  !
 ! D146  D(53,7,54,73)        -179.9188         calculate D2E/DX2 analytically  !
 ! D147  D(3,8,9,10)          -171.0162         calculate D2E/DX2 analytically  !
 ! D148  D(3,8,9,48)             7.6555         calculate D2E/DX2 analytically  !
 ! D149  D(14,8,9,10)            0.9783         calculate D2E/DX2 analytically  !
 ! D150  D(14,8,9,48)          179.6501         calculate D2E/DX2 analytically  !
 ! D151  D(3,8,14,12)          170.7006         calculate D2E/DX2 analytically  !
 ! D152  D(3,8,14,15)           -8.7076         calculate D2E/DX2 analytically  !
 ! D153  D(9,8,14,12)           -1.0101         calculate D2E/DX2 analytically  !
 ! D154  D(9,8,14,15)          179.5817         calculate D2E/DX2 analytically  !
 ! D155  D(8,9,10,11)         -178.7904         calculate D2E/DX2 analytically  !
 ! D156  D(8,9,10,12)           -0.5878         calculate D2E/DX2 analytically  !
 ! D157  D(48,9,10,11)           2.5517         calculate D2E/DX2 analytically  !
 ! D158  D(48,9,10,12)        -179.2457         calculate D2E/DX2 analytically  !
 ! D159  D(1,9,48,6)          -130.2557         calculate D2E/DX2 analytically  !
 ! D160  D(1,9,48,49)          -14.8855         calculate D2E/DX2 analytically  !
 ! D161  D(1,9,48,58)          101.9648         calculate D2E/DX2 analytically  !
 ! D162  D(8,9,48,6)           -39.9997         calculate D2E/DX2 analytically  !
 ! D163  D(8,9,48,49)           75.3706         calculate D2E/DX2 analytically  !
 ! D164  D(8,9,48,58)         -167.7791         calculate D2E/DX2 analytically  !
 ! D165  D(10,9,48,6)          138.4123         calculate D2E/DX2 analytically  !
 ! D166  D(10,9,48,49)        -106.2175         calculate D2E/DX2 analytically  !
 ! D167  D(10,9,48,58)          10.6328         calculate D2E/DX2 analytically  !
 ! D168  D(9,10,12,13)        -178.354          calculate D2E/DX2 analytically  !
 ! D169  D(9,10,12,14)          -0.033          calculate D2E/DX2 analytically  !
 ! D170  D(11,10,12,13)         -0.141          calculate D2E/DX2 analytically  !
 ! D171  D(11,10,12,14)        178.1801         calculate D2E/DX2 analytically  !
 ! D172  D(10,12,14,8)           0.6479         calculate D2E/DX2 analytically  !
 ! D173  D(10,12,14,15)       -179.9425         calculate D2E/DX2 analytically  !
 ! D174  D(13,12,14,8)         178.9696         calculate D2E/DX2 analytically  !
 ! D175  D(13,12,14,15)         -1.6208         calculate D2E/DX2 analytically  !
 ! D176  D(17,16,18,19)          0.3471         calculate D2E/DX2 analytically  !
 ! D177  D(17,16,18,20)       -178.5841         calculate D2E/DX2 analytically  !
 ! D178  D(24,16,18,19)        178.9416         calculate D2E/DX2 analytically  !
 ! D179  D(24,16,18,20)          0.0104         calculate D2E/DX2 analytically  !
 ! D180  D(17,16,24,22)        178.716          calculate D2E/DX2 analytically  !
 ! D181  D(17,16,24,25)         -0.3339         calculate D2E/DX2 analytically  !
 ! D182  D(18,16,24,22)          0.1328         calculate D2E/DX2 analytically  !
 ! D183  D(18,16,24,25)       -178.9171         calculate D2E/DX2 analytically  !
 ! D184  D(16,18,20,21)        178.6232         calculate D2E/DX2 analytically  !
 ! D185  D(16,18,20,22)         -0.1495         calculate D2E/DX2 analytically  !
 ! D186  D(19,18,20,21)         -0.3087         calculate D2E/DX2 analytically  !
 ! D187  D(19,18,20,22)       -179.0814         calculate D2E/DX2 analytically  !
 ! D188  D(18,20,22,23)        178.8294         calculate D2E/DX2 analytically  !
 ! D189  D(18,20,22,24)          0.2316         calculate D2E/DX2 analytically  !
 ! D190  D(21,20,22,23)          0.0564         calculate D2E/DX2 analytically  !
 ! D191  D(21,20,22,24)       -178.5413         calculate D2E/DX2 analytically  !
 ! D192  D(20,22,24,16)         -0.2251         calculate D2E/DX2 analytically  !
 ! D193  D(20,22,24,25)        178.8212         calculate D2E/DX2 analytically  !
 ! D194  D(23,22,24,16)       -178.8208         calculate D2E/DX2 analytically  !
 ! D195  D(23,22,24,25)          0.2255         calculate D2E/DX2 analytically  !
 ! D196  D(3,26,27,28)          -3.0913         calculate D2E/DX2 analytically  !
 ! D197  D(3,26,27,29)         177.3936         calculate D2E/DX2 analytically  !
 ! D198  D(35,26,27,28)       -179.5884         calculate D2E/DX2 analytically  !
 ! D199  D(35,26,27,29)          0.8966         calculate D2E/DX2 analytically  !
 ! D200  D(3,26,35,33)        -176.8801         calculate D2E/DX2 analytically  !
 ! D201  D(3,26,35,36)           3.979          calculate D2E/DX2 analytically  !
 ! D202  D(27,26,35,33)         -0.588          calculate D2E/DX2 analytically  !
 ! D203  D(27,26,35,36)       -179.7289         calculate D2E/DX2 analytically  !
 ! D204  D(26,27,29,30)        179.4732         calculate D2E/DX2 analytically  !
 ! D205  D(26,27,29,31)         -0.6064         calculate D2E/DX2 analytically  !
 ! D206  D(28,27,29,30)         -0.0442         calculate D2E/DX2 analytically  !
 ! D207  D(28,27,29,31)        179.8762         calculate D2E/DX2 analytically  !
 ! D208  D(27,29,31,32)       -179.9822         calculate D2E/DX2 analytically  !
 ! D209  D(27,29,31,33)         -0.0053         calculate D2E/DX2 analytically  !
 ! D210  D(30,29,31,32)         -0.0622         calculate D2E/DX2 analytically  !
 ! D211  D(30,29,31,33)        179.9148         calculate D2E/DX2 analytically  !
 ! D212  D(29,31,33,34)        179.9603         calculate D2E/DX2 analytically  !
 ! D213  D(29,31,33,35)          0.3122         calculate D2E/DX2 analytically  !
 ! D214  D(32,31,33,34)         -0.0628         calculate D2E/DX2 analytically  !
 ! D215  D(32,31,33,35)       -179.7108         calculate D2E/DX2 analytically  !
 ! D216  D(31,33,35,26)         -0.0104         calculate D2E/DX2 analytically  !
 ! D217  D(31,33,35,36)        179.1371         calculate D2E/DX2 analytically  !
 ! D218  D(34,33,35,26)       -179.6607         calculate D2E/DX2 analytically  !
 ! D219  D(34,33,35,36)         -0.5131         calculate D2E/DX2 analytically  !
 ! D220  D(3,37,38,39)           1.9482         calculate D2E/DX2 analytically  !
 ! D221  D(3,37,38,40)        -177.8555         calculate D2E/DX2 analytically  !
 ! D222  D(46,37,38,39)       -179.5054         calculate D2E/DX2 analytically  !
 ! D223  D(46,37,38,40)          0.6909         calculate D2E/DX2 analytically  !
 ! D224  D(3,37,46,44)         177.6551         calculate D2E/DX2 analytically  !
 ! D225  D(3,37,46,47)          -3.1301         calculate D2E/DX2 analytically  !
 ! D226  D(38,37,46,44)         -0.8968         calculate D2E/DX2 analytically  !
 ! D227  D(38,37,46,47)        178.318          calculate D2E/DX2 analytically  !
 ! D228  D(37,38,40,41)       -179.8809         calculate D2E/DX2 analytically  !
 ! D229  D(37,38,40,42)         -0.0955         calculate D2E/DX2 analytically  !
 ! D230  D(39,38,40,41)          0.3132         calculate D2E/DX2 analytically  !
 ! D231  D(39,38,40,42)       -179.9013         calculate D2E/DX2 analytically  !
 ! D232  D(38,40,42,43)       -179.866          calculate D2E/DX2 analytically  !
 ! D233  D(38,40,42,44)         -0.3081         calculate D2E/DX2 analytically  !
 ! D234  D(41,40,42,43)         -0.0819         calculate D2E/DX2 analytically  !
 ! D235  D(41,40,42,44)        179.4759         calculate D2E/DX2 analytically  !
 ! D236  D(40,42,44,45)       -179.4836         calculate D2E/DX2 analytically  !
 ! D237  D(40,42,44,46)          0.1033         calculate D2E/DX2 analytically  !
 ! D238  D(43,42,44,45)          0.0744         calculate D2E/DX2 analytically  !
 ! D239  D(43,42,44,46)        179.6614         calculate D2E/DX2 analytically  !
 ! D240  D(42,44,46,37)          0.5071         calculate D2E/DX2 analytically  !
 ! D241  D(42,44,46,47)       -178.7146         calculate D2E/DX2 analytically  !
 ! D242  D(45,44,46,37)       -179.9036         calculate D2E/DX2 analytically  !
 ! D243  D(45,44,46,47)          0.8747         calculate D2E/DX2 analytically  !
 ! D244  D(6,48,58,59)         169.0979         calculate D2E/DX2 analytically  !
 ! D245  D(6,48,58,60)         -70.3366         calculate D2E/DX2 analytically  !
 ! D246  D(6,48,58,61)          50.3442         calculate D2E/DX2 analytically  !
 ! D247  D(9,48,58,59)         -62.6824         calculate D2E/DX2 analytically  !
 ! D248  D(9,48,58,60)          57.883          calculate D2E/DX2 analytically  !
 ! D249  D(9,48,58,61)         178.5638         calculate D2E/DX2 analytically  !
 ! D250  D(49,48,58,59)         54.8125         calculate D2E/DX2 analytically  !
 ! D251  D(49,48,58,60)        175.378          calculate D2E/DX2 analytically  !
 ! D252  D(49,48,58,61)        -63.9412         calculate D2E/DX2 analytically  !
 ! D253  D(6,50,53,7)          -27.3301         calculate D2E/DX2 analytically  !
 ! D254  D(6,50,53,57)         154.8135         calculate D2E/DX2 analytically  !
 ! D255  D(51,50,53,7)        -152.0876         calculate D2E/DX2 analytically  !
 ! D256  D(51,50,53,57)         30.056          calculate D2E/DX2 analytically  !
 ! D257  D(52,50,53,7)          93.7957         calculate D2E/DX2 analytically  !
 ! D258  D(52,50,53,57)        -84.0607         calculate D2E/DX2 analytically  !
 ! D259  D(7,53,57,56)          -1.1143         calculate D2E/DX2 analytically  !
 ! D260  D(7,53,57,71)         179.1668         calculate D2E/DX2 analytically  !
 ! D261  D(50,53,57,56)        176.5707         calculate D2E/DX2 analytically  !
 ! D262  D(50,53,57,71)         -3.1482         calculate D2E/DX2 analytically  !
 ! D263  D(7,54,55,56)          -0.3694         calculate D2E/DX2 analytically  !
 ! D264  D(7,54,55,72)        -179.8604         calculate D2E/DX2 analytically  !
 ! D265  D(73,54,55,56)        179.2292         calculate D2E/DX2 analytically  !
 ! D266  D(73,54,55,72)         -0.2617         calculate D2E/DX2 analytically  !
 ! D267  D(54,55,56,57)          0.3144         calculate D2E/DX2 analytically  !
 ! D268  D(54,55,56,78)       -179.6856         calculate D2E/DX2 analytically  !
 ! D269  D(72,55,56,57)        179.7877         calculate D2E/DX2 analytically  !
 ! D270  D(72,55,56,78)         -0.2123         calculate D2E/DX2 analytically  !
 ! D271  D(55,56,57,53)          0.3841         calculate D2E/DX2 analytically  !
 ! D272  D(55,56,57,71)       -179.9059         calculate D2E/DX2 analytically  !
 ! D273  D(78,56,57,53)       -179.6159         calculate D2E/DX2 analytically  !
 ! D274  D(78,56,57,71)          0.0941         calculate D2E/DX2 analytically  !
 ! D275  D(66,67,68,69)        -44.9865         calculate D2E/DX2 analytically  !
 ! D276  D(66,67,68,70)         72.5395         calculate D2E/DX2 analytically  !
 ! D277  D(66,67,68,74)       -166.3485         calculate D2E/DX2 analytically  !
 ! D278  D(67,68,74,75)         59.1777         calculate D2E/DX2 analytically  !
 ! D279  D(67,68,74,76)        179.6908         calculate D2E/DX2 analytically  !
 ! D280  D(67,68,74,77)        -59.876          calculate D2E/DX2 analytically  !
 ! D281  D(69,68,74,75)        -64.0966         calculate D2E/DX2 analytically  !
 ! D282  D(69,68,74,76)         56.4165         calculate D2E/DX2 analytically  !
 ! D283  D(69,68,74,77)        176.8498         calculate D2E/DX2 analytically  !
 ! D284  D(70,68,74,75)       -177.6036         calculate D2E/DX2 analytically  !
 ! D285  D(70,68,74,76)        -57.0904         calculate D2E/DX2 analytically  !
 ! D286  D(70,68,74,77)         63.3428         calculate D2E/DX2 analytically  !
 --------------------------------------------------------------------------------
 Trust Radius=3.00D-01 FncErr=1.00D-07 GrdErr=1.00D-06 EigMax=2.50D+02 EigMin=1.00D-04
 Number of steps in this run=    468 maximum allowed number of steps=    468.
 Search for a saddle point of order  1.
 GradGradGradGradGradGradGradGradGradGradGradGradGradGradGradGradGradGrad

 Leave Link  103 at Thu Sep  2 21:29:21 2021, MaxMem=   536870912 cpu:               0.8 elap:               0.0
 (Enter /gpfs1/apps/software/Gaussian16/AVX2/g16/l202.exe)
 Stoichiometry    C34H36FeMnN2O3P
 Framework group  C1[X(C34H36FeMnN2O3P)]
 Deg. of freedom   228
 Full point group                 C1      NOp   1
 Largest Abelian subgroup         C1      NOp   1
 Largest concise Abelian subgroup C1      NOp   1
                         Standard orientation:                         
 ---------------------------------------------------------------------
 Center     Atomic      Atomic             Coordinates (Angstroms)
 Number     Number       Type             X           Y           Z
 ---------------------------------------------------------------------
      1         26           0       -2.899238   -1.279179   -0.952531
      2         25           0        1.304979   -0.215747    1.268144
      3         15           0       -0.298789    0.924565    0.138513
      4          8           0        1.456923    1.887754    3.336809
      5          8           0       -0.536295   -1.761256    2.967443
      6          7           0        1.368620   -1.631094   -0.289643
      7          7           0        2.863862    0.538161    0.130758
      8          6           0       -1.215173   -0.110585   -1.065870
      9          6           0       -0.893535   -1.501630   -1.373117
     10          6           0       -1.700955   -1.881196   -2.508888
     11          1           0       -1.715281   -2.870840   -2.982745
     12          6           0       -2.518715   -0.763099   -2.896484
     13          1           0       -3.255443   -0.754065   -3.711082
     14          6           0       -2.231773    0.327714   -2.006327
     15          1           0       -2.694078    1.322522   -2.039566
     16          6           0       -3.409449   -1.721448    0.995803
     17          1           0       -2.746174   -1.634397    1.865728
     18          6           0       -3.551009   -2.885241    0.161979
     19          1           0       -3.020183   -3.838433    0.288368
     20          6           0       -4.492330   -2.573313   -0.883318
     21          1           0       -4.801125   -3.244875   -1.695644
     22          6           0       -4.935420   -1.215423   -0.692335
     23          1           0       -5.641963   -0.671731   -1.333807
     24          6           0       -4.264141   -0.687175    0.466877
     25          1           0       -4.369292    0.328652    0.869386
     26          6           0        0.382171    2.309362   -0.905137
     27          6           0        0.912413    3.439638   -0.237773
     28          1           0        0.866155    3.500933    0.861719
     29          6           0        1.490405    4.493429   -0.964185
     30          1           0        1.890415    5.369507   -0.429139
     31          6           0        1.560049    4.430274   -2.369159
     32          1           0        2.013682    5.256719   -2.938942
     33          6           0        1.047791    3.306435   -3.039429
     34          1           0        1.096744    3.247427   -4.138530
     35          6           0        0.461964    2.251547   -2.313111
     36          1           0        0.052771    1.385117   -2.854891
     37          6           0       -1.635934    1.830640    1.071573
     38          6           0       -1.970594    1.465425    2.393410
     39          1           0       -1.421973    0.659811    2.900357
     40          6           0       -3.010381    2.122526    3.076831
     41          1           0       -3.255324    1.824503    4.108671
     42          6           0       -3.729426    3.155270    2.450212
     43          1           0       -4.541804    3.670561    2.986869
     44          6           0       -3.398376    3.532963    1.135813
     45          1           0       -3.949400    4.346675    0.637807
     46          6           0       -2.357057    2.880011    0.453978
     47          1           0       -2.097369    3.202741   -0.566224
     48          6           0        0.130096   -2.370414   -0.644544
     49          1           0       -0.313598   -2.668867    0.327363
     50          6           0        2.066610   -1.095920   -1.465949
     51          1           0        2.530381   -1.895060   -2.089524
     52          1           0        1.355556   -0.561963   -2.146095
     53          6           0        3.117243   -0.102448   -1.046881
     54          6           0        3.750063    1.493274    0.517808
     55          6           0        4.884168    1.841754   -0.206317
     56          6           0        5.177162    1.172657   -1.436612
     57          6           0        4.239729    0.171456   -1.832259
     58          6           0        0.432277   -3.675734   -1.409082
     59          1           0       -0.478418   -4.303161   -1.491793
     60          1           0        0.807008   -3.489568   -2.436804
     61          1           0        1.196856   -4.253085   -0.851451
     62          6           0        1.405546    1.041945    2.513421
     63          6           0        0.157206   -1.125088    2.250234
     64          1           0        2.627678   -0.834520    2.164181
     65          1           0        2.496057   -1.583446    1.775415
     66          1           0        2.148922   -2.479324    0.330324
     67          8           0        2.795550   -3.168587    1.090943
     68          6           0        4.158349   -3.236072    0.757036
     69          1           0        4.310418   -3.405105   -0.343423
     70          1           0        4.693916   -2.270900    0.981628
     71          1           0        4.374754   -0.400473   -2.759558
     72          1           0        5.538640    2.626084    0.194482
     73          1           0        3.535007    2.001223    1.469747
     74          6           0        4.858523   -4.363117    1.523336
     75          1           0        4.385156   -5.341785    1.293924
     76          1           0        5.936731   -4.427689    1.261235
     77          1           0        4.778473   -4.199853    2.619472
     78          1           0        6.041885    1.407270   -2.021515
 ---------------------------------------------------------------------
 Rotational constants (GHZ):           0.1023931           0.0760625           0.0630974
 Leave Link  202 at Thu Sep  2 21:29:21 2021, MaxMem=   536870912 cpu:               0.1 elap:               0.0
 (Enter /gpfs1/apps/software/Gaussian16/AVX2/g16/l301.exe)
 General basis read from cards:  (5D, 7F)
 Centers:       8      9     10     12     14     16     18     20     22     24
 Centers:      26     27     29     31     33     35     37     38     40     42
 Centers:      44     46     48     50     53     54     55     56     57     58
 Centers:      62     63     68     74      1     11     13     15     17     19
 Centers:      21     23     25     28     30     32     34     36     39     41
 Centers:      43     45     47     49     51     52     59     60     61     64
 Centers:      65     66     69     70     71     72     73     75     76     77
 Centers:      78      2      6      7      4      5     67      3
 def2SVP
 ****
 Ernie: Thresh=  0.10000D-02 Tol=  0.10000D-05 Strict=F.
 There are   856 symmetry adapted cartesian basis functions of A   symmetry.
 There are   806 symmetry adapted basis functions of A   symmetry.
   806 basis functions,  1426 primitive gaussians,   856 cartesian basis functions
   172 alpha electrons      172 beta electrons
       nuclear repulsion energy      7142.6784271545 Hartrees.
 IExCor=  404 DFT=T Ex=B Corr=P86 ExCW=0 ScaHFX=  0.000000
 ScaDFX=  1.000000  1.000000  1.000000  1.000000 ScalE2=  1.000000  1.000000
 IRadAn=      5 IRanWt=     -1 IRanGd=            0 ICorTp=0 IEmpDi=  4
 NAtoms=   78 NActive=   78 NUniq=   78 SFac= 1.00D+00 NAtFMM=   60 NAOKFM=T Big=T
 Integral buffers will be    131072 words long.
 Raffenetti 2 integral format.
 Two-electron integral symmetry is turned on.
 Standard density basis: Auto (5D, 7F)
 AutoDB:  IAlg=4 SamFac= 1.50 LInc=0 MaxL= 6.
 Shells with S=P=... and L > 2 split apart in FixB.
  4848 Density fitting functions
 There are  4848 symmetry adapted density basis functions of A   symmetry.
 Force inversion solution in PCM.
 ------------------------------------------------------------------------------
 Polarizable Continuum Model (PCM)
 =================================
 Model                : PCM.
 Atomic radii         : UFF (Universal Force Field).
 Polarization charges : Total charges.
 Charge compensation  : None.
 Solution method      : Matrix inversion.
 Cavity type          : Scaled VdW (van der Waals Surface) (Alpha=1.100).
 Cavity algorithm     : GePol (No added spheres)
                        Default sphere list used, NSphG=   78.
                        Lebedev-Laikov grids with approx.  5.0 points / Ang**2.
                        Smoothing algorithm: York/Karplus (Gamma=1.0000).
                        Polarization charges: spherical gaussians, with
                                              point-specific exponents (IZeta= 3).
                        Self-potential: point-specific (ISelfS= 7).
                        Self-field    : sphere-specific E.n sum rule (ISelfD= 2).
 1st derivatives      : Analytical E(r).r(x)/FMM algorithm (CHGder, D1EAlg=3).
                        Cavity 1st derivative terms included.
 2nd derivatives      : Analytical E(r).r(xy)/FMM algorithm (CHGder, D2EAlg=3).
                        Cavity 2nd derivative terms included.
 Solvent              : Ethanol, Eps=  24.852000 Eps(inf)=   1.852593
 ------------------------------------------------------------------------------
 GePol: Number of generator spheres                  =      78
 GePol: Total number of spheres                      =      78
 GePol: Number of exposed spheres                    =      76 ( 97.44%)
 GePol: Number of points                             =    4877
 GePol: Average weight of points                     =       0.13
 GePol: Minimum weight of points                     =   0.69D-10
 GePol: Maximum weight of points                     =    0.20577
 GePol: Number of points with low weight             =     362
 GePol: Fraction of low-weight points (<1% of avg)   =       7.42%
 GePol: Cavity surface area                          =    619.643 Ang**2
 GePol: Cavity volume                                =    799.227 Ang**3
 Leave Link  301 at Thu Sep  2 21:29:21 2021, MaxMem=   536870912 cpu:               4.7 elap:               0.1
 (Enter /gpfs1/apps/software/Gaussian16/AVX2/g16/l302.exe)
 NPDir=0 NMtPBC=     1 NCelOv=     1 NCel=       1 NClECP=     1 NCelD=      1
         NCelK=      1 NCelE2=     1 NClLst=     1 CellRange=     0.0.
 One-electron integrals computed using PRISM.
 One-electron integral symmetry used in STVInt
 NBasis=   806 RedAO= T EigKep=  2.70D-04  NBF=   806
 NBsUse=   806 1.00D-06 EigRej= -1.00D+00 NBFU=   806
 NBasis=      806 NBas6D=      856 NTT=      325221   NTT6D=   366796
 NDBShl=      742 NDBF=       4848 NDBF6D=     5873  NNucDB=        0
 IDenFi=        2 ISolve=        0 FullAP=F BlkAPC=T NucTyp=        0
 TolInv= 1.00D-06 TolIt=  1.00D-10 IR12=0.
 FoFCou: FMM=F IPFlag=           0 FMFlag=           0 FMFlg1=           0
         NFxFlg=           0 DoJE=F BraDBF=T KetDBF=T FulRan=T
         wScrn=  0.000000 ICntrl=       600 IOpCl=  3 I1Cent=           6 NGrid=           0
         NMat0=    1 NMatS0=   5873 NMatT0=    0 NMatD0=    1 NMtDS0=    0 NMtDT0=    0
 Petite list used in FoFCou.
 CoulSu:  requested number of processors reduced to:  31 ShMem   1 Linda.
 DBF EigKep=  1.05D-06 EigRej=  9.89D-07
 NDBF=   4848  NBFD=  4848
 NRank=  4825 NBFDU=  4825
 S*AI*S=  13.5586298435    
 Precomputing XC quadrature grid using
 IXCGrd= 4 IRadAn=           5 IRanWt=          -1 IRanGd=           0 AccXCQ= 0.00D+00.
 Generated NRdTot=       0 NPtTot=           0 NUsed=           0 NTot=          32
 NSgBfM=   822   818   819   822   822 MxSgAt=    78 MxSgA2=    78.
 Leave Link  302 at Thu Sep  2 21:31:04 2021, MaxMem=   536870912 cpu:            3303.8 elap:             103.4
 (Enter /gpfs1/apps/software/Gaussian16/AVX2/g16/l303.exe)
 DipDrv:  MaxL=1.
 Leave Link  303 at Thu Sep  2 21:31:04 2021, MaxMem=   536870912 cpu:               7.0 elap:               0.2
 (Enter /gpfs1/apps/software/Gaussian16/AVX2/g16/l401.exe)
 ExpMin= 3.13D-02 ExpMax= 6.09D+04 ExpMxC= 9.15D+03 IAcc=3 IRadAn=         5 AccDes= 0.00D+00
 Harris functional with IExCor=  404 and IRadAn=       5 diagonalized for initial guess.
 HarFok:  IExCor=  404 AccDes= 0.00D+00 IRadAn=         5 IDoV= 1 UseB2=F ITyADJ=14
 ICtDFT=  3500011 ScaDFX=  1.000000  1.000000  1.000000  1.000000
 FoFCou: FMM=F IPFlag=           0 FMFlag=      100000 FMFlg1=        2001
         NFxFlg=           0 DoJE=T BraDBF=F KetDBF=T FulRan=T
         wScrn=  0.000000 ICntrl=       500 IOpCl=  0 I1Cent=   200000004 NGrid=           0
         NMat0=    1 NMatS0=      1 NMatT0=    0 NMatD0=    1 NMtDS0=    0 NMtDT0=    0
 Petite list used in FoFCou.
 Harris En= -4407.79699028021    
 JPrj=0 DoOrth=F DoCkMO=F.
[...]
 002,0.00016032,-0.00027090,-0.00017062,0.00000662,0.00000437,0.0000064
 1,0.00000662,-0.00000997,-0.00001068,0.00000314,0.00000610,-0.00000060
 ,-0.00000049,-0.00000445,0.00000130,0.00000030,0.00000079,0.00000046,0
 .00000414,-0.00000078,-0.00000283,0.00000121,-0.00000015,-0.00000113,-
 0.00000120,0.00000506,-0.00000020,0.00000036,-0.00000075,0.00000019,-0
 .00000026,0.00000091,0.00000242,-0.00000235,0.00000092,-0.00000011,-0.
 00000097,0.00000095,0.00000188,-0.00000017,-0.00000031,0.00000073,-0.0
 0000045,-0.00000006,-0.00000049,0.00000016,0.00000027,-0.00000036,0.00
 000019,-0.00000059,-0.00000064,0.00000049,-0.00000032,-0.00000042,-0.0
 0000010,-0.00000020,0.00000058,-0.00000014,-0.00000013,0.00000048,0.00
 001098,-0.00000081,-0.00000209,-0.00000251,-0.00000007,-0.00000144,0.0
 0000097,0.00000091,0.00000028,-0.00000081,0.00000060,-0.00000062,-0.00
 000061,-0.00000097,0.00000018,-0.00000181,-0.00000230,-0.00000037,-0.0
 0000034,-0.00000057,-0.00000034,-0.00000017,0.00000143,0.00000015,-0.0
 0000050,-0.00000035,-0.00000087,-0.00000278,-0.00000415,-0.00000038,0.
 00000051,0.00000093,0.00000131,0.00000231,-0.00000408,-0.00000909,-0.0
 0000042,-0.00000053,0.00000173,-0.00000191,0.00000107,-0.00000044,-0.0
 0000011,-0.00000094,-0.00000134,0.00000057,0.00000013,0.00000053,0.000
 00084,-0.00000097,0.00000046,0.00000064,-0.00000038,0.00000017,0.00000
 033,-0.00000153,-0.00000040,0.00000088,-0.00000087,0.00000003,0.000003
 36,-0.00000077,0.00000515,-0.00000033,0.00000081,-0.00000047,-0.000052
 87,-0.00001779,0.00002249,0.00000057,-0.00000021,-0.00000078,0.0000365
 7,0.00000421,0.00002539,-0.00000102,-0.00000491,-0.00001586,-0.0000079
 2,-0.00001201,-0.00001680,0.00000356,0.00000403,-0.00000318,-0.0000014
 2,-0.00000421,-0.00000550,0.00000159,-0.00000006,0.00000358,-0.0000064
 9,0.00000221,-0.00000464,-0.00000257,-0.00000165,0.00000226,0.00000802
 ,0.00000400,-0.00000605,0.00000273,0.00000176,-0.00000399,-0.00000033,
 -0.00000117,-0.00000397,0.00001070,-0.00000884,0.00000731,-0.00001487,
 0.00007665,-0.00004218,-0.00003285,0.00000521,-0.00000027,-0.00000124,
 -0.00009758,0.00000527,-0.00000266,0.00044221,-0.00003657,-0.00032752,
 0.00045454,0.00033902,0.00167141,-0.00128085,-0.00023967,-0.00031824,-
 0.00117736,0.00767432,0.00047471,0.00124416,0.00099690,-0.00003823,-0.
 00018587,-0.00060119,-0.00000043,0.00000002,-0.00000107,-0.00000133,-0
 .00000127,-0.00000015,0.00000243,-0.00000014,0.00000097,-0.05003406,0.
 00713381,-0.04431805,0.00251069,-0.00204652,0.01539902,-0.00327808,0.0
 0446022,-0.02708177,0.04918886,0.00000166,-0.00000059,-0.00000031,-0.0
 0002358,0.00000416,0.00003123,-0.00000170,0.00000181,-0.00000475,-0.00
 000274,-0.00000384,0.00001509,0.00000280,0.00000080,0.00000500,-0.0000
 9181,0.00024697,0.00014636,-0.00000651,0.00000803,-0.00000550,0.000000
 93,-0.00000078,-0.00000108,-0.00000162,0.00000050,0.00000277,-0.000000
 56,-0.00000031,0.00000216,-0.00000037,-0.00000009,0.00000007,0.0000004
 1,-0.00000028,-0.00000025,0.00000022,0.00000015,-0.00000002,-0.0000002
 3,0.00000086,-0.00000022,0.00000005,-0.00000012,0.00000007,-0.00000023
 ,-0.00000014,0.00000026,-0.00000032,0.00000020,0.00000001,-0.00000015,
 0.00000014,-0.00000019,-0.00000012,-0.00000015,0.00000025,-0.00000003,
 0.,0.,0.00000011,0.00000007,-0.00000004,-0.00000007,-0.00000019,-0.000
 00025,0.00000012,-0.00000004,-0.00000003,-0.00000017,0.00000019,0.0000
 0006,0.,0.,0.,0.00000208,-0.00000102,-0.00000043,0.00000036,0.00000007
 ,-0.00000067,0.00000006,0.00000110,0.00000031,-0.00000032,-0.00000024,
 -0.00000057,-0.00000014,-0.00000034,0.00000001,-0.00000062,-0.00000076
 ,0.00000072,-0.00000014,-0.00000014,-0.00000007,0.00000074,0.00000078,
 0.00000025,-0.00000004,-0.00000006,-0.00000013,0.00000017,-0.00000176,
 -0.00000056,-0.00000059,0.00000026,0.00000091,-0.00000049,-0.00000058,
 -0.00000100,-0.00000003,-0.00000070,0.00000009,-0.00000012,0.00000075,
 -0.00000056,-0.00000014,-0.00000014,-0.00000017,0.00000017,0.00000006,
 0.00000007,0.00000026,-0.00000033,0.00000026,0.00000010,0.,0.00000001,
 -0.00000011,-0.00000016,-0.00000002,0.00000021,-0.00000011,-0.00000003
 ,0.00000069,-0.00000024,0.00000061,-0.00000012,0.00000033,-0.00000002,
 0.00000949,-0.00000011,-0.00000364,0.00000137,0.00000067,-0.00000159,-
 0.00005370,0.00003964,-0.00003104,-0.00000242,-0.00001140,0.00006268,0
 .00001833,-0.00001759,0.00001799,0.00003185,0.00003115,-0.00000116,-0.
 00000525,-0.00000168,-0.00000201,-0.00000107,-0.00000103,0.00001069,0.
 00001094,0.00000687,-0.00000963,-0.00000861,-0.00001183,0.00000172,0.0
 0000473,0.00000570,0.00000211,0.00000325,-0.00000172,-0.00000063,-0.00
 000215,-0.00000048,0.00000400,0.00000147,-0.00001558,-0.00000680,0.000
 01208,-0.00000988,-0.00002064,-0.00001074,0.00000263,-0.00000743,0.000
 03766,-0.00002807,-0.00000760,-0.00001814,-0.00008311,-0.00006213,0.00
 006095,-0.00032718,-0.00024961,-0.00170246,0.00160862,0.00239533,-0.00
 518914,0.00353178,-0.02654805,0.00209819,-0.00341730,-0.00348330,-0.00
 028782,0.00161490,0.00038317,0.00000165,0.00000183,0.00000441,-0.00000
 057,-0.00000147,0.00000021,0.00000155,-0.00000280,0.00000039,0.0080408
 3,-0.05032801,0.04541751,0.00546191,-0.00381730,0.02185210,0.00023193,
 -0.00221065,0.00492583,-0.00862277,0.05318968,0.00001381,-0.00000419,-
 0.00000598,0.00002322,-0.00006505,0.00005860,-0.00002053,0.00003104,-0
 .00000070,-0.00000188,-0.00003908,0.00005034,0.00004911,0.00003270,0.0
 0003636,-0.00004766,0.00007407,-0.00000825,-0.00000738,0.00000664,-0.0
 0000912,0.00000708,-0.00000727,-0.00001158,-0.00000072,0.00000235,0.00
 000528,-0.00000186,-0.00000514,0.00000342,-0.00000092,0.00000032,0.000
 00091,0.00000259,-0.00000021,-0.00000138,0.00000104,-0.00000005,-0.000
 00087,-0.00000131,0.00000437,0.,0.00000055,-0.00000068,-0.00000006,-0.
 00000092,0.00000057,0.00000207,-0.00000203,-0.00000025,0.00000014,-0.0
 0000142,0.00000106,0.00000111,-0.00000017,0.00000043,-0.00000050,0.000
 00018,0.00000059,-0.00000169,0.00000011,0.00000035,-0.00000030,0.00000
 031,-0.00000054,-0.00000076,0.00000049,-0.00000012,-0.00000027,-0.0000
 0008,-0.00000143,0.00000057,-0.00000012,-0.00000026,0.00000034,0.00001
 059,-0.00000247,-0.00000171,-0.00000012,-0.00000077,-0.00000269,0.0000
 0029,0.00000197,0.00000037,-0.00000038,0.00000003,-0.00000075,-0.00000
 081,-0.00000099,0.00000022,-0.00000148,-0.00000215,0.00000041,-0.00000
 055,-0.00000044,-0.00000028,0.00000083,0.00000136,0.00000063,-0.000000
 49,-0.00000005,-0.00000056,-0.00000050,-0.00000435,-0.00000102,-0.0000
 0096,0.00000100,0.00000207,0.00000059,-0.00000296,-0.00000619,0.000001
 78,-0.00000240,0.00000001,-0.00000243,0.00000184,-0.00000288,-0.000000
 68,-0.00000037,-0.00000100,0.00000109,-0.00000038,0.00000086,0.0000015
 1,-0.00000124,0.00000072,0.00000054,-0.00000041,0.00000008,0.00000020,
 -0.00000128,0.,0.00000083,-0.00000069,0.00000003,0.00000351,-0.0000002
 6,0.00000475,-0.00000040,0.00000109,-0.00000024,-0.00004200,-0.0000050
 1,0.00000889,0.00000226,-0.00000012,0.00000133,-0.00003597,0.00003787,
 -0.00002735,0.00000484,-0.00002560,0.00005227,0.00000755,-0.00003733,-
 0.00000550,0.00003894,0.00002714,-0.00000124,-0.00000259,0.00000674,-0
 .00000793,0.00000160,-0.00000352,0.00001108,0.00001029,0.00001032,-0.0
 0001062,-0.00000585,-0.00001487,0.00000458,0.00000539,0.00001363,0.000
 00272,0.00000697,-0.00000027,-0.00000587,-0.00000158,-0.00000069,0.000
 00287,-0.00001132,-0.00002314,0.00001162,0.00000424,0.00003587,-0.0000
 6559,-0.00006862,-0.00003101,-0.00004840,-0.00001108,-0.00006175,0.000
 02807,0.00000427,0.00026998,-0.00019816,-0.00007794,0.00010832,0.00026
 706,0.00042202,0.00044615,0.00238841,-0.00441212,0.00340220,-0.0173731
 8,0.00110463,-0.00371727,-0.00108460,0.00000134,-0.00013617,0.00122519
 ,0.00000148,0.00000251,0.00000458,-0.00000173,-0.00000189,0.00000068,0
 .00000252,-0.00000171,0.00000110,-0.04397366,0.04449269,-0.28044871,-0
 .00185157,0.00014120,-0.00682164,0.00081962,-0.00011834,-0.00136353,0.
 04803598,-0.04483246,0.30334149,-0.00003606,0.00000995,0.00002363,-0.0
 0009277,0.00020727,0.00015715,0.00007682,-0.00007386,-0.00002539,-0.00
 001391,0.00005363,-0.00006413,-0.00011255,-0.00003664,-0.00006117,-0.0
 0032433,-0.00017494,0.00011613,-0.00019446,0.00061604,0.00073515,-0.00
 001126,-0.00000465,0.00001875,0.00001392,-0.00000832,-0.00001371,0.000
 00711,0.00000977,-0.00001511,-0.00000052,-0.00000198,-0.00000051,-0.00
 000871,0.00000153,0.00000530,-0.00000347,0.00000073,0.00000211,0.00000
 479,-0.00000709,-0.00000496,-0.00000184,0.00000181,-0.00000022,0.00000
 164,-0.00000183,-0.00000575,0.00000464,-0.00000089,-0.00000014,0.00000
 336,-0.00000090,-0.00000354,0.00000034,-0.00000002,-0.00000086,0.00000
 011,0.00000041,0.00000309,-0.00000101,-0.00000080,0.00000078,-0.000000
 75,0.00000128,0.00000179,-0.00000151,0.00000049,0.00000059,0.00000033,
 0.00000127,-0.00000078,0.00000027,0.00000025,-0.00000129,-0.00000978,0
 .00001381,0.00000270,-0.00000851,0.00000095,0.00001386,0.00000427,-0.0
 0000840,0.00000174,-0.00000383,-0.00000079,0.00000047,0.00000119,0.000
 00216,-0.00000098,0.00000803,0.00000456,-0.00000200,0.00000050,0.00000
 589,0.00000212,-0.00000166,-0.00000457,-0.00000196,-0.00000057,0.00000
 182,0.00000552,-0.00000743,0.00000755,-0.00000310,0.00000383,-0.000004
 54,-0.00000889,-0.00000459,0.00000529,0.00001948,-0.00000309,0.0000039
 4,-0.00000039,0.00000489,-0.00000328,0.00000408,0.00000111,0.00000058,
 0.00000177,-0.00000149,0.00000037,-0.00000149,-0.00000280,0.00000251,-
 0.00000078,-0.00000115,0.00000096,-0.00000039,-0.00000059,0.00000339,0
 .00000043,-0.00000198,0.00000207,-0.00000026,-0.00000908,0.00000137,-0
 .00001125,0.00000086,-0.00000208,0.00000074,0.00003625,0.00001554,-0.0
 0013395,-0.00004739,-0.00001656,0.00001261,-0.00019077,0.00042203,-0.0
 0061483,0.00003800,0.00000116,-0.00002242,-0.00011072,-0.00007445,0.00
 004294,0.00059853,-0.00427634,0.00113856,0.00248682,-0.00103944,-0.001
 98345,-0.00134002,-0.00264264,-0.00047973,-0.27159670,-0.03794820,-0.1
 0703124,-0.01182862,-0.00120919,-0.00979997,-0.00001972,0.00000338,0.0
 0001139,-0.00000604,-0.00001175,0.00000600,0.00000729,0.00000348,-0.00
 000470,0.00000427,0.00000168,-0.00000165,0.00004618,-0.00005100,0.0000
 7096,0.00013417,-0.00002333,0.00004752,0.00001805,-0.00001192,0.000007
 69,0.00000949,0.00003338,0.00000175,-0.00006060,0.00013573,0.00009738,
 0.00007757,-0.00010426,-0.00005253,-0.00005403,0.00001159,-0.00001347,
 0.00000531,0.00000202,0.00000489,0.00000057,0.00000262,0.00000393,0.00
 037211,0.00155176,0.00072974,-0.00001033,0.00113123,0.00087701,-0.0002
 2293,-0.00004699,0.00014944,0.00000388,-0.00000110,0.00000229,-0.00000
 131,-0.00000317,-0.00000160,0.00000597,-0.00000494,-0.00000231,-0.0000
 0078,-0.00000140,-0.00000238,0.28236721,-0.00001762,0.00000395,0.00001
 334,0.00023197,-0.00030792,-0.00030768,0.00004090,-0.00003834,0.000014
 07,0.00002644,0.00007298,-0.00006359,0.00001400,-0.00005462,-0.0000449
 1,-0.00020656,-0.00015754,0.00015355,0.00066679,-0.00179785,-0.0006754
 2,-0.00000166,-0.00000300,0.00000403,0.00001071,-0.00000552,-0.0000086
 1,0.00000213,0.00000506,-0.00000639,-0.00000008,-0.00000099,-0.0000003
 3,-0.00000427,0.00000107,0.00000228,-0.00000146,0.00000074,0.00000085,
 0.00000121,-0.00000146,-0.00000343,-0.00000084,0.00000066,-0.00000003,
 0.00000110,-0.00000120,-0.00000206,0.00000085,0.00000040,0.00000029,0.
 00000190,-0.00000057,-0.00000162,0.00000029,0.00000004,-0.00000030,-0.
 00000006,0.00000016,0.00000121,-0.00000049,-0.00000032,0.00000046,-0.0
 0000017,0.00000060,0.00000088,-0.00000059,0.00000028,0.00000025,0.0000
 0037,0.00000131,-0.00000095,0.,0.00000012,-0.00000055,-0.00002062,0.00
 000263,0.00001276,0.00000322,0.00000038,0.00000433,-0.00000350,0.00000
 201,-0.00000181,0.00000478,-0.00000011,-0.00000327,0.00000095,0.000000
 25,0.00000086,0.00000019,-0.00000028,0.00000172,0.00000164,-0.00000211
 ,-0.00000168,-0.00000731,-0.00000448,-0.00000457,0.00000186,0.00000066
 ,0.00000023,0.00000467,0.00001317,0.00000343,0.00000183,-0.00000186,-0
 .00000390,0.00000305,0.00000270,-0.00000144,-0.00000198,-0.00000014,-0
 .00000252,0.00000190,-0.00000158,0.00000395,0.00000033,0.00000193,0.00
 000181,-0.00000071,0.00000021,-0.00000075,-0.00000143,0.00000087,-0.00
 000131,-0.00000063,0.00000050,0.,-0.00000038,0.00000013,0.00000028,-0.
 00000046,0.00000070,0.00000001,-0.00000208,-0.00000079,-0.00000260,0.0
 0000108,-0.00000084,0.00000008,0.00000738,-0.00004911,-0.00013529,-0.0
 0004027,-0.00002112,0.00002093,-0.00021454,-0.00000311,-0.00100112,-0.
 00002499,-0.00003567,0.00002233,0.00009977,0.00010947,0.00001450,-0.00
 427293,0.00269895,0.00508666,-0.00152460,0.00310756,0.00538991,0.01237
 117,0.00638620,0.00647880,-0.03777720,-0.05026559,-0.00964172,-0.01609
 839,0.00236679,-0.00744546,-0.00001238,0.00000245,0.00000311,-0.000002
 67,-0.00000581,0.00000524,0.00000477,0.00000170,-0.00000116,0.00000103
 ,0.00000059,-0.00000026,-0.00004357,-0.00009361,0.00009076,-0.00008962
 ,0.00014911,0.00009928,-0.00001267,-0.00000636,0.00000410,-0.00001747,
 -0.00000532,0.00000532,-0.00006019,0.00007786,0.00006480,0.00005515,-0
 .00004984,-0.00003811,-0.00002926,0.00000274,-0.00001061,0.00000244,-0
 .00000066,0.00000429,-0.00000082,-0.00000047,-0.00000413,0.00168635,-0
 .00179951,-0.00199321,0.00096461,-0.00176279,-0.00209809,0.00074801,-0
 .00003418,0.00009804,0.00000162,-0.00000034,0.00000143,-0.00000002,-0.
 00000022,-0.00000059,0.00000328,-0.00000349,-0.00000137,-0.00000029,-0
 .00000041,0.00000021,0.04352501,0.04150216,-0.00000460,-0.00000667,0.0
 0000458,0.00010627,-0.00030347,-0.00012653,0.00005260,-0.00000853,-0.0
 0003089,-0.00001659,-0.00003297,0.00002413,-0.00003262,-0.00007087,-0.
 00004914,0.00025000,0.00005907,-0.00000899,0.00069669,-0.00077186,-0.0
 0093203,-0.00000362,0.00000649,0.00000312,-0.00000800,0.00001325,0.000
 00566,-0.00000034,-0.00000167,-0.00000035,-0.00000010,-0.00000006,0.00
 000049,-0.00000162,0.00000069,0.00000036,-0.00000027,-0.00000082,0.000
 00052,0.00000373,-0.00000578,0.00000026,0.00000067,0.00000007,-0.00000
 062,-0.00000018,0.00000172,-0.00000217,0.00000229,0.00000023,-0.000000
 27,0.00000037,0.00000055,0.00000054,-0.00000003,-0.00000033,0.,-0.0000
 0005,-0.00000042,0.00000114,-0.00000011,-0.00000008,0.00000022,-0.0000
 0003,0.00000012,0.00000077,-0.00000026,0.00000010,0.00000029,0.0000005
 1,0.00000013,-0.00000127,0.00000044,0.00000002,-0.00000040,-0.00002273
 ,0.00000937,0.00000589,-0.00000315,0.00000648,-0.00000370,0.00000341,-
 0.00000729,0.00000370,-0.00000747,-0.00000488,0.00000218,0.00000079,0.
 00000090,-0.00000108,0.00000042,-0.00000122,-0.00000166,0.00000102,0.0
 0000042,0.00000192,0.00000260,-0.00000405,0.00000313,0.00000080,-0.000
 00015,0.00000024,0.00000649,0.00000607,-0.00000028,-0.00000028,-0.0000
 0004,0.00000114,-0.00000261,0.00000270,0.00000416,-0.00000181,-0.00000
 052,-0.00000227,0.00000365,-0.00000202,0.00000440,0.00000056,0.0000023
 2,0.00000209,-0.00000072,0.00000006,-0.00000087,-0.00000150,0.00000132
 ,-0.00000084,-0.00000085,0.00000051,-0.00000006,-0.00000041,0.00000105
 ,-0.00000022,-0.00000078,0.00000084,0.00000002,-0.00000297,-0.00000086
 ,-0.00000374,0.00000110,-0.00000128,0.00000012,0.00004464,0.00000335,0
 .00002799,0.00001633,0.00000736,-0.00000121,0.00032816,-0.00021722,0.0
 0035803,-0.00005960,-0.00001843,0.00002542,0.00006049,0.00003240,-0.00
 003327,0.00075586,0.00486193,0.00123913,-0.00135783,0.00565655,-0.0017
 0326,-0.02254713,-0.00390876,-0.00505470,-0.10708291,-0.00981187,-0.09
 902977,0.01206340,0.00291622,0.00909026,-0.00000093,-0.00000205,0.0000
 0125,-0.00000060,0.00000029,0.00000053,0.00000029,-0.00000057,0.000000
 24,-0.00000025,0.00000075,-0.00000030,0.00002852,0.00002604,0.00000848
 ,-0.00002709,0.00013964,0.00007503,-0.00001191,0.00001114,0.00000152,-
 0.00001530,0.00002339,-0.00000875,-0.00000968,-0.00000092,-0.00000341,
 0.00001552,-0.00001887,0.00000179,-0.00001705,0.00000219,-0.00000109,0
 .00000248,-0.00000085,0.00000200,-0.00000059,0.00000214,-0.00000201,0.
 00054539,-0.00205073,-0.00055310,0.00114177,-0.00198206,0.00003428,-0.
 00094694,-0.00045861,-0.00037448,0.00000132,0.,0.00000115,0.00000034,0
 .00000027,-0.00000022,0.00000143,-0.00000172,-0.00000018,-0.00000063,-
 0.00000014,-0.00000015,0.11605177,0.00590050,0.09699510\\0.00000043,-0
 .00000073,-0.00000041,0.00000080,-0.00000066,0.00000144,0.00000040,0.0
 0000098,-0.00000050,-0.00000080,0.00000188,0.00000118,-0.00000006,0.00
 000181,-0.00000047,0.00000293,0.00000517,0.00000093,-0.00000792,0.0000
 0434,0.00000154,-0.00000095,-0.00000046,-0.00000005,0.00000123,-0.0000
 0037,0.00000040,0.00000038,-0.00000168,-0.00000054,0.00000047,-0.00000
 162,-0.00000077,0.00000051,-0.00000197,0.00000044,0.00000067,-0.000001
 95,0.00000041,0.00000019,-0.00000119,0.00000103,0.00000016,-0.00000141
 ,0.00000110,-0.00000014,0.00000029,-0.00000018,-0.00000014,0.00000084,
 0.00000006,0.00000014,-0.00000059,-0.00000032,0.00000020,-0.00000012,-
 0.00000134,0.00000041,-0.00000068,0.00000019,0.00000053,-0.00000151,-0
 .00000046,0.00000031,-0.00000057,0.00000073,0.00000030,-0.00000127,0.0
 0000118,0.00000079,0.00000057,0.00000103,-0.00000010,0.00000059,0.0000
 0106,0.00000040,-0.00000120,0.00000172,0.00000053,-0.00000032,0.000001
 52,0.00000003,0.00000057,0.00000164,0.00000006,-0.00000035,0.00000174,
 -0.00000015,0.00000013,0.00000241,0.00000008,-0.00000074,0.00000244,0.
 00000029,-0.00000117,0.00000226,0.00000075,-0.00000135,0.00000132,0.00
 000061,-0.00000194,0.00000148,-0.00000035,-0.00000029,0.00000117,0.000
 00049,-0.00000117,0.00000104,-0.00000050,0.00000058,0.00000216,-0.0000
 0069,0.00000105,0.00000138,-0.00000047,0.00000153,0.00000085,-0.000000
 47,0.00000143,0.00000185,-0.00000066,0.00000202,0.00000180,-0.00000043
 ,0.00000106,0.00000272,-0.00000048,0.00000139,0.00000302,-0.00000020,0
 .00000038,0.00000270,-0.00000013,0.00000021,0.00000323,-0.00000058,0.0
 0000005,0.00000166,0.00000035,-0.00000015,0.00000227,0.00000092,-0.000
 00239,-0.00000174,-0.00000012,0.00000005,-0.00000106,-0.00000091,-0.00
 000157,-0.00000273,-0.00000187,-0.00000007,0.00000184,-0.00000009,-0.0
 0000242,-0.00000098,0.00000038,-0.00000404,-0.00000445,-0.00000024,-0.
 00000114,-0.00000165,-0.00000323,0.00001055,-0.00001585,-0.00002424,-0
 .00000262,-0.00001388,-0.00001106,-0.00001542,0.00000959,0.00000011,-0
 .00000094,-0.00000165,0.00000025,-0.00000097,-0.00000222,0.00000009,-0
 .00000119,-0.00000179,0.00000044,-0.00000041,-0.00000232,0.00000006,0.
 00000176,-0.00000023,-0.00000149,0.00000070,-0.00000079,-0.00000014,-0
 .00000162,-0.00000045,0.00000027,0.00000483,-0.00000192,0.00000105,0.0
 0000103,-0.00000181,-0.00000010,-0.00000144,-0.00000308,-0.00000251,0.
 00000261,-0.00000453,0.00000097,0.00000019,-0.00000256,0.00000065,0.00
 000053,-0.00000174,0.00000023,-0.00000117,-0.00000165,-0.00000075,0.00
 000045,-0.00000064,-0.00000054,0.00000167,0.00000051,0.00000040,0.0000
 0094,-0.00000205,-0.00000140,0.00000073,-0.00000402,-0.00000023,0.0000
 0102,-0.00000360,0.00000018,0.00000242,-0.00000278,0.00004370,0.000006
 53,0.00002018\\\@
 The archive entry for this job was punched.


 LORD, MAN... WERE YE BUT WHYLES WHERE I AM, 
 THE GENTILES YE WAD NE'ER ENVY 'EM.        
 IT'S TRUE, THEY NEEDNA STARVE OR SWEAT,     
 THRO' WINTER'S CAULD OR SIMMER'S HEAT...  
 THEY'VE NAE SAIR WARK TO CRAZE THEIR BANES, 
 AND FILL AULD AGE WITH GRIPS AN' GRANES...  
                                             
 BUT HUMAN BODIES ARE SIC FOOLS              
 FOR A' THEIR COLLEGES AND SCHOOLS,           
 THAT WHEN NAE REAL ILLS PERPLEX THEM,       
 THEY MAK ENOW THEMSELVES TO VEX THEM,       
 AN' AYE THE LESS THEY HAE TO STURT THEM,    
 IN LIKE PROPORTION LESS WILL HURT THEM....  
                                             
                (ROBERT BURNS 'THE TWA DOGS')
 Job cpu time:       1 days 13 hours 22 minutes 56.0 seconds.
 Elapsed time:       0 days  1 hours 13 minutes 32.8 seconds.
 File lengths (MBytes):  RWF=   6039 Int=      0 D2E=      0 Chk=    270 Scr=      1
 Normal termination of Gaussian 16 at Fri Sep  3 00:16:44 2021.
